nqpoint: 357    
npath: 7      
segment_nqpoint:
- 51
- 51
- 51
- 51
- 51
- 51
- 51
labels:
- [ '$\Gamma$', 'X' ]
- [ 'Y', '$\Gamma$' ]
- [ '$\Gamma$', 'Z' ]
- [ 'R$_2$', '$\Gamma$' ]
- [ '$\Gamma$', 'T$_2$' ]
- [ 'U$_2$', '$\Gamma$' ]
- [ '$\Gamma$', 'V$_2$' ]
reciprocal_lattice:
- [   0.31798301,   0.07061630,  -0.12493420 ] # a*
- [   0.04049518,   0.24700179,  -0.24096899 ] # b*
- [  -0.00468169,  -0.05933884,   0.43831005 ] # c*
natom: 3      
lattice:
- [     3.255747184876678,    -0.575906207225079,    -0.043191371553332 ] # a
- [    -0.815573757834211,     4.808898310268922,     0.642322035414567 ] # b
- [     0.479628959244695,     2.479626003790611,     2.622307246568305 ] # c
points:
- symbol: V  # 1
  coordinates: [  0.722570972843221,  0.278460552178880,  0.554203845087735 ]
  mass: 50.941500
- symbol: O  # 2
  coordinates: [  0.054491194873380,  0.942807771251189,  0.890852050854599 ]
  mass: 15.999400
- symbol: O  # 3
  coordinates: [  0.722937832283392,  0.278731676569929,  0.054944104057665 ]
  mass: 15.999400

phonon:
- q-position: [    0.0000000,    0.0000000,    0.0000000 ]
  distance:    0.0000000
  band:
  - # 1
    frequency:   -0.0074569356
    eigenvector:
    - # atom 1
      - [ -0.40836945750644,  0.00000000000000 ]
      - [ -0.26547816654949,  0.00000000000000 ]
      - [ -0.61405348422038,  0.00000000000000 ]
    - # atom 2
      - [ -0.22885480680018,  0.00000000000000 ]
      - [ -0.14854738108755,  0.00000000000000 ]
      - [ -0.34412952748097,  0.00000000000000 ]
    - # atom 3
      - [ -0.22884475513731,  0.00000000000000 ]
      - [ -0.14868459686112,  0.00000000000000 ]
      - [ -0.34402185653361,  0.00000000000000 ]
  - # 2
    frequency:    0.0036223308
    eigenvector:
    - # atom 1
      - [ -0.46708295516634,  0.00000000000000 ]
      - [  0.62816703695901,  0.00000000000000 ]
      - [  0.03934518655292,  0.00000000000000 ]
    - # atom 2
      - [ -0.26180621467521,  0.00000000000000 ]
      - [  0.35188861163478,  0.00000000000000 ]
      - [  0.02187598377046,  0.00000000000000 ]
    - # atom 3
      - [ -0.26179267204775,  0.00000000000000 ]
      - [  0.35189716775643,  0.00000000000000 ]
      - [  0.02186264958107,  0.00000000000000 ]
  - # 3
    frequency:    0.0090682950
    eigenvector:
    - # atom 1
      - [ -0.47883721672338,  0.00000000000000 ]
      - [ -0.38659400812028,  0.00000000000000 ]
      - [  0.48523170496282,  0.00000000000000 ]
    - # atom 2
      - [ -0.26831586997191,  0.00000000000000 ]
      - [ -0.21641581124489,  0.00000000000000 ]
      - [  0.27223791734938,  0.00000000000000 ]
    - # atom 3
      - [ -0.26826671733594,  0.00000000000000 ]
      - [ -0.21634710364735,  0.00000000000000 ]
      - [  0.27220284954402,  0.00000000000000 ]
  - # 4
    frequency:    3.2722077690
    eigenvector:
    - # atom 1
      - [ -0.08208149785954,  0.00000000000000 ]
      - [ -0.41798798352802,  0.00000000000000 ]
      - [ -0.45164946551959,  0.00000000000000 ]
    - # atom 2
      - [  0.06978573441108,  0.00000000000000 ]
      - [  0.36587210182577,  0.00000000000000 ]
      - [  0.39393668848571,  0.00000000000000 ]
    - # atom 3
      - [  0.07714141784712,  0.00000000000000 ]
      - [  0.38107379136398,  0.00000000000000 ]
      - [  0.41167322315450,  0.00000000000000 ]
  - # 5
    frequency:    9.8969320613
    eigenvector:
    - # atom 1
      - [ -0.48217584188131,  0.00000000000000 ]
      - [  0.07110119252347,  0.00000000000000 ]
      - [  0.02358291684800,  0.00000000000000 ]
    - # atom 2
      - [ -0.00271860058514,  0.00000000000000 ]
      - [ -0.00338985046512,  0.00000000000000 ]
      - [ -0.00155501846031,  0.00000000000000 ]
    - # atom 3
      - [  0.86312543799177,  0.00000000000000 ]
      - [ -0.12346084667216,  0.00000000000000 ]
      - [ -0.04056502968719,  0.00000000000000 ]
  - # 6
    frequency:   10.0199753430
    eigenvector:
    - # atom 1
      - [ -0.03301578347408,  0.00000000000000 ]
      - [ -0.33914365286626,  0.00000000000000 ]
      - [  0.31979765202230,  0.00000000000000 ]
    - # atom 2
      - [ -0.00372059913209,  0.00000000000000 ]
      - [ -0.02900133091870,  0.00000000000000 ]
      - [  0.04007444755905,  0.00000000000000 ]
    - # atom 3
      - [  0.06270631144025,  0.00000000000000 ]
      - [  0.63416071175341,  0.00000000000000 ]
      - [ -0.61079311660905,  0.00000000000000 ]
  - # 7
    frequency:   15.3871992193
    eigenvector:
    - # atom 1
      - [ -0.03475791821636,  0.00000000000000 ]
      - [ -0.00078746067054,  0.00000000000000 ]
      - [ -0.00759536364893,  0.00000000000000 ]
    - # atom 2
      - [  0.16910285832770,  0.00000000000000 ]
      - [  0.47648112550284,  0.00000000000000 ]
      - [  0.50971083941847,  0.00000000000000 ]
    - # atom 3
      - [ -0.10709338310455,  0.00000000000000 ]
      - [ -0.47507536884116,  0.00000000000000 ]
      - [ -0.49611772717565,  0.00000000000000 ]
  - # 8
    frequency:   15.6385007602
    eigenvector:
    - # atom 1
      - [  0.37849288546034, -0.00000000000000 ]
      - [ -0.05474989152712,  0.00000000000000 ]
      - [ -0.01738893888653,  0.00000000000000 ]
    - # atom 2
      - [ -0.87699926595597,  0.00000000000000 ]
      - [  0.17027809596897,  0.00000000000000 ]
      - [  0.08220076722032,  0.00000000000000 ]
    - # atom 3
      - [  0.20169692803693,  0.00000000000000 ]
      - [ -0.07256704592049,  0.00000000000000 ]
      - [ -0.05114952902208,  0.00000000000000 ]
  - # 9
    frequency:   16.5106819185
    eigenvector:
    - # atom 1
      - [ -0.03157348703479,  0.00000000000000 ]
      - [ -0.29611934705635,  0.00000000000000 ]
      - [  0.28065364892708,  0.00000000000000 ]
    - # atom 2
      - [  0.06689398871990,  0.00000000000000 ]
      - [  0.64539013093949,  0.00000000000000 ]
      - [ -0.61937567444171,  0.00000000000000 ]
    - # atom 3
      - [ -0.01042104809288,  0.00000000000000 ]
      - [ -0.11693159981094,  0.00000000000000 ]
      - [  0.11890721740303,  0.00000000000000 ]

- q-position: [    0.0100000,    0.0000000,    0.0000000 ]
  distance:    0.0034887
  band:
  - # 1
    frequency:    0.1436491037
    eigenvector:
    - # atom 1
      - [ -0.29565002837269,  0.00000000000000 ]
      - [ -0.39347643525168,  0.08747390767789 ]
      - [ -0.59923881975094,  0.09030879296351 ]
    - # atom 2
      - [ -0.16535500055499, -0.00002309706498 ]
      - [ -0.21848510599920,  0.04703754085667 ]
      - [ -0.33401546389398,  0.05130971976857 ]
    - # atom 3
      - [ -0.16546421736861,  0.00042035831386 ]
      - [ -0.21865995952161,  0.04926793430969 ]
      - [ -0.33372654335957,  0.04890569493043 ]
  - # 2
    frequency:   -0.3771803760
    eigenvector:
    - # atom 1
      - [  0.47342489885707,  0.00000000000000 ]
      - [ -0.18193210982684, -0.46670438559403 ]
      - [ -0.12927771997759,  0.35025439062937 ]
    - # atom 2
      - [  0.26844262763663,  0.00107375764633 ]
      - [ -0.10515447849983, -0.25825944024366 ]
      - [ -0.07028851106453,  0.19608284582212 ]
    - # atom 3
      - [  0.26200946121322, -0.00257839039570 ]
      - [ -0.10007108937311, -0.26134524010856 ]
      - [ -0.07404119086095,  0.19976361880665 ]
  - # 3
    frequency:    0.4549658976
    eigenvector:
    - # atom 1
      - [  0.55000386247216,  0.00000000000000 ]
      - [ -0.05416368605081,  0.44687590867072 ]
      - [ -0.21019092781365, -0.25386693051239 ]
    - # atom 2
      - [  0.30575679425727,  0.00183939914246 ]
      - [ -0.02715397474273,  0.25209756664067 ]
      - [ -0.11918868348893, -0.14356487008388 ]
    - # atom 3
      - [  0.31148000551548, -0.00412016467749 ]
      - [ -0.03156778940119,  0.24985623566430 ]
      - [ -0.11595970642180, -0.14046102976745 ]
  - # 4
    frequency:    3.2738957543
    eigenvector:
    - # atom 1
      - [ -0.08176233623642,  0.00000000000000 ]
      - [ -0.41606398347684, -0.00545451500015 ]
      - [ -0.45020516541114, -0.00285267785551 ]
    - # atom 2
      - [  0.06994646084089,  0.00205939894490 ]
      - [  0.36692862769611,  0.00403204962003 ]
      - [  0.39474856718927,  0.00238532841140 ]
    - # atom 3
      - [  0.07735130242055,  0.00297345604548 ]
      - [  0.38210928862779,  0.00307966242641 ]
      - [  0.41240719705901,  0.00354997529526 ]
  - # 5
    frequency:    9.8979558006
    eigenvector:
    - # atom 1
      - [ -0.48182080960511,  0.00000000000000 ]
      - [  0.07361180169688,  0.01233649493413 ]
      - [  0.02118787571681, -0.01278069732246 ]
    - # atom 2
      - [ -0.00251374469348,  0.00394727773884 ]
      - [ -0.00327176539312,  0.00357186357498 ]
      - [ -0.00178857713954, -0.00304243791235 ]
    - # atom 3
      - [  0.86118110980005, -0.01322640340201 ]
      - [ -0.12789382967027, -0.03201653467865 ]
      - [ -0.03602196257807,  0.03347263200036 ]
  - # 6
    frequency:   10.0195754044
    eigenvector:
    - # atom 1
      - [ -0.04127100034632,  0.00000000000000 ]
      - [ -0.30063072340870, -0.15579132675102 ]
      - [  0.28605309552134,  0.14327933458115 ]
    - # atom 2
      - [ -0.00550575199921,  0.00296478547614 ]
      - [ -0.02460555993525, -0.01505460395071 ]
      - [  0.03430148009554,  0.02040688791190 ]
    - # atom 3
      - [  0.08195340745780, -0.00961640538764 ]
      - [  0.55805856915636,  0.29737697780178 ]
      - [ -0.54245024303557, -0.27911260721598 ]
  - # 7
    frequency:   15.3852571116
    eigenvector:
    - # atom 1
      - [ -0.03596879019282,  0.00000000000000 ]
      - [ -0.00082380730300,  0.00346979827589 ]
      - [ -0.00735352196891, -0.00358899971011 ]
    - # atom 2
      - [  0.17190319418772,  0.00131377966089 ]
      - [  0.47614745543250,  0.00267571292761 ]
      - [  0.50890943380107,  0.01857326736747 ]
    - # atom 3
      - [ -0.10762264944196, -0.00081829921645 ]
      - [ -0.47486700226248, -0.00819555345315 ]
      - [ -0.49567678888807, -0.01312179447738 ]
  - # 8
    frequency:   15.6301890175
    eigenvector:
    - # atom 1
      - [  0.37821073988372, -0.00000000000000 ]
      - [ -0.05355610474805, -0.01002192885565 ]
      - [ -0.01844671907448,  0.00947671526080 ]
    - # atom 2
      - [ -0.87622291343370,  0.00186172165014 ]
      - [  0.16946642461091,  0.01987166235052 ]
      - [  0.08622962977589, -0.01762434961131 ]
    - # atom 3
      - [  0.20102106655562, -0.00702392355771 ]
      - [ -0.07361903247166, -0.01028397627088 ]
      - [ -0.05350123336523,  0.00900908674325 ]
  - # 9
    frequency:   16.5056666221
    eigenvector:
    - # atom 1
      - [ -0.03284648892712,  0.00000000000000 ]
      - [ -0.26967797191620, -0.12211995589376 ]
      - [  0.25692181937985,  0.11212198255110 ]
    - # atom 2
      - [  0.06945650401984, -0.00027109574755 ]
      - [  0.59172599225507,  0.25791554944944 ]
      - [ -0.56627722227739, -0.24981546128932 ]
    - # atom 3
      - [ -0.01418141474470,  0.00877928273837 ]
      - [ -0.10676088956968, -0.04764145683158 ]
      - [  0.10513772412567,  0.05603314439285 ]

- q-position: [    0.0200000,    0.0000000,    0.0000000 ]
  distance:    0.0069773
  band:
  - # 1
    frequency:    0.2864584218
    eigenvector:
    - # atom 1
      - [ -0.28547371036300,  0.00000000000000 ]
      - [ -0.38889056112717,  0.17029535518435 ]
      - [ -0.57813013402232,  0.17167042021632 ]
    - # atom 2
      - [ -0.15875185726733, -0.00043695061116 ]
      - [ -0.21078586638353,  0.09008597762924 ]
      - [ -0.31710919886498,  0.09573818588293 ]
    - # atom 3
      - [ -0.15912607810297,  0.00053436119491 ]
      - [ -0.21113325025050,  0.09419468413354 ]
      - [ -0.31625568047336,  0.09111371656936 ]
  - # 2
    frequency:   -0.4816172822
    eigenvector:
    - # atom 1
      - [  0.43636788780517,  0.00000000000000 ]
      - [ -0.24937183644546, -0.45178009231911 ]
      - [ -0.06576157585168,  0.39157715370129 ]
    - # atom 2
      - [  0.25122327923702,  0.00101848270013 ]
      - [ -0.14539818202643, -0.24578660072035 ]
      - [ -0.03140556737599,  0.21870998872972 ]
    - # atom 3
      - [  0.23814879772904, -0.00366654176272 ]
      - [ -0.13493667694724, -0.25331365795559 ]
      - [ -0.03906751789103,  0.22697520276458 ]
  - # 3
    frequency:    0.7004777839
    eigenvector:
    - # atom 1
      - [  0.58447918770543,  0.00000000000000 ]
      - [ -0.00158783697931,  0.41707596727603 ]
      - [ -0.23101813883034, -0.21013780292528 ]
    - # atom 2
      - [  0.32328247778179,  0.00431991914444 ]
      - [  0.00510993335554,  0.23593280569379 ]
      - [ -0.13176860043820, -0.12107129216017 ]
    - # atom 3
      - [  0.33396398865823, -0.00934526509209 ]
      - [ -0.00275768717186,  0.23205397624155 ]
      - [ -0.12611525334952, -0.11523491216127 ]
  - # 4
    frequency:    3.2791800295
    eigenvector:
    - # atom 1
      - [ -0.08078929005895,  0.00000000000000 ]
      - [ -0.41027004931993, -0.01031563181124 ]
      - [ -0.44583119875809, -0.00503408747546 ]
    - # atom 2
      - [  0.07043735187433,  0.00398706700757 ]
      - [  0.37009561917955,  0.00763940881225 ]
      - [  0.39718026369401,  0.00440583326787 ]
    - # atom 3
      - [  0.07798674140153,  0.00575897873139 ]
      - [  0.38520869429512,  0.00575472855246 ]
      - [  0.41460539513320,  0.00669031949543 ]
  - # 5
    frequency:    9.9009165447
    eigenvector:
    - # atom 1
      - [ -0.48045553570912,  0.00000000000000 ]
      - [  0.08148303474702,  0.02540127932207 ]
      - [  0.01363059069848, -0.02615971997034 ]
    - # atom 2
      - [ -0.00187541511625,  0.00769429793289 ]
      - [ -0.00290759990829,  0.00727385852236 ]
      - [ -0.00250809224089, -0.00627766560322 ]
    - # atom 3
      - [  0.85479279521053, -0.02568372897709 ]
      - [ -0.14174226960538, -0.06552057556656 ]
      - [ -0.02176998845623,  0.06818897455919 ]
  - # 6
    frequency:   10.0184740897
    eigenvector:
    - # atom 1
      - [  0.06191418806350,  0.00000000000000 ]
      - [  0.26111510899943,  0.21259155984991 ]
      - [ -0.25392339067311, -0.19504945833611 ]
    - # atom 2
      - [  0.00889055929945, -0.00631222545237 ]
      - [  0.01928970067412,  0.02076416701300 ]
      - [ -0.02746547001388, -0.02822790187604 ]
    - # atom 3
      - [ -0.12652513895020,  0.01924873025467 ]
      - [ -0.47675790492479, -0.40630994577200 ]
      - [  0.47387519533371,  0.38009602644353 ]
  - # 7
    frequency:   15.3794100917
    eigenvector:
    - # atom 1
      - [ -0.03997685295945,  0.00000000000000 ]
      - [ -0.00094119137279,  0.00706195199646 ]
      - [ -0.00654838046185, -0.00737317334545 ]
    - # atom 2
      - [  0.18116197445023,  0.00300558958039 ]
      - [  0.47497208560531,  0.00731013008796 ]
      - [  0.50613214340818,  0.03983555236101 ]
    - # atom 3
      - [ -0.10938056303114, -0.00186503322373 ]
      - [ -0.47405731960395, -0.01845428834352 ]
      - [ -0.49411762807388, -0.02873843148650 ]
  - # 8
    frequency:   15.6054414500
    eigenvector:
    - # atom 1
      - [  0.37728758228361, -0.00000000000000 ]
      - [ -0.05006289755851, -0.01950499153044 ]
      - [ -0.02154671854199,  0.01847380768601 ]
    - # atom 2
      - [ -0.87364127769030,  0.00372473191136 ]
      - [  0.16764756034142,  0.03930436159516 ]
      - [  0.09864419982621, -0.03372108728628 ]
    - # atom 3
      - [  0.19888817858086, -0.01431998884743 ]
      - [ -0.07726981371935, -0.02084356998456 ]
      - [ -0.06098728358644,  0.01715865171256 ]
  - # 9
    frequency:   16.4907806512
    eigenvector:
    - # atom 1
      - [ -0.03646971263882,  0.00000000000000 ]
      - [ -0.20332462502790, -0.21482520694778 ]
      - [  0.19742210291769,  0.19760999080669 ]
    - # atom 2
      - [  0.07682440813801, -0.00083580828195 ]
      - [  0.45704624654368,  0.45620640872243 ]
      - [ -0.43306542710307, -0.44033606925123 ]
    - # atom 3
      - [ -0.02389911187766,  0.01435655807346 ]
      - [ -0.08117503016629, -0.08404660854654 ]
      - [  0.07047185547328,  0.09694043739026 ]

- q-position: [    0.0300000,    0.0000000,    0.0000000 ]
  distance:    0.0104660
  band:
  - # 1
    frequency:    0.4265317578
    eigenvector:
    - # atom 1
      - [ -0.26968189854754,  0.00000000000000 ]
      - [ -0.38345558451443,  0.24441140793133 ]
      - [ -0.55050351195853,  0.23857060941435 ]
    - # atom 2
      - [ -0.14854789033141, -0.00149667611195 ]
      - [ -0.19966539763882,  0.12583373022903 ]
      - [ -0.29380809100993,  0.12881483667036 ]
    - # atom 3
      - [ -0.14915557209452,  0.00006558826276 ]
      - [ -0.20042841390227,  0.13123616819475 ]
      - [ -0.29197171865274,  0.12227663009240 ]
  - # 2
    frequency:   -0.5290189084
    eigenvector:
    - # atom 1
      - [  0.40349224837093,  0.00000000000000 ]
      - [ -0.31272043291908, -0.42130763605510 ]
      - [  0.01011975292941,  0.41919605614314 ]
    - # atom 2
      - [  0.23641793931415, -0.00028350099163 ]
      - [ -0.18233635940758, -0.22410305629237 ]
      - [  0.01528075503774,  0.23279019974465 ]
    - # atom 3
      - [  0.21708124115588, -0.00328596499987 ]
      - [ -0.16681586145554, -0.23761300824899 ]
      - [  0.00405260382455,  0.24666998344428 ]
  - # 3
    frequency:    0.9286715184
    eigenvector:
    - # atom 1
      - [  0.61411781801832,  0.00000000000000 ]
      - [  0.04148693983845,  0.37957479193464 ]
      - [ -0.24360997346023, -0.17275404552664 ]
    - # atom 2
      - [  0.33872969276790,  0.00724900479303 ]
      - [  0.03115173458168,  0.21438339413977 ]
      - [ -0.13974064378256, -0.10310275908401 ]
    - # atom 3
      - [  0.35362878508168, -0.01540469753817 ]
      - [  0.02082416167060,  0.20913274707417 ]
      - [ -0.13255870493108, -0.09465782367711 ]
  - # 4
    frequency:    3.2887201220
    eigenvector:
    - # atom 1
      - [ -0.07911705511982,  0.00000000000000 ]
      - [ -0.40054799030733, -0.01397668795039 ]
      - [ -0.43840772668955, -0.00584955855389 ]
    - # atom 2
      - [  0.07128354718774,  0.00563470961086 ]
      - [  0.37535718852410,  0.01032285111658 ]
      - [  0.40121316424123,  0.00562150949615 ]
    - # atom 3
      - [  0.07906381015397,  0.00815008868058 ]
      - [  0.39034229533174,  0.00754470829529 ]
      - [  0.41825018780871,  0.00893647035225 ]
  - # 5
    frequency:    9.9054515001
    eigenvector:
    - # atom 1
      - [ -0.47703247635478,  0.00000000000000 ]
      - [  0.09573010719725,  0.03990642926558 ]
      - [ -0.00023006007999, -0.04070610638643 ]
    - # atom 2
      - [ -0.00073353657702,  0.01095677678954 ]
      - [ -0.00226973323679,  0.01123396395829 ]
      - [ -0.00376636705874, -0.00989999534473 ]
    - # atom 3
      - [  0.84205989136949, -0.03638335838920 ]
      - [ -0.16663360529630, -0.10197054282291 ]
      - [  0.00408264395134,  0.10531872786841 ]
  - # 6
    frequency:   10.0169988442
    eigenvector:
    - # atom 1
      - [  0.09209961200076,  0.00000000000000 ]
      - [  0.24773767824985,  0.22195327273117 ]
      - [ -0.24766463157074, -0.20274823142899 ]
    - # atom 2
      - [  0.01215994331770, -0.01088412160329 ]
      - [  0.01635695550842,  0.02194017099545 ]
      - [ -0.02382493033041, -0.03004814278871 ]
    - # atom 3
      - [ -0.18651568564117,  0.03171929502601 ]
      - [ -0.44432066501480, -0.42472537175106 ]
      - [  0.45430302968998,  0.39490772853588 ]
  - # 7
    frequency:   15.3695668959
    eigenvector:
    - # atom 1
      - [ -0.04822518634688,  0.00000000000000 ]
      - [ -0.00114464535548,  0.01098039966970 ]
      - [ -0.00490066177735, -0.01161490616754 ]
    - # atom 2
      - [  0.20017717275436,  0.00535556227449 ]
      - [  0.47225161300785,  0.01524430497308 ]
      - [  0.50003682227408,  0.06613233686018 ]
    - # atom 3
      - [ -0.11302296452956, -0.00317663702508 ]
      - [ -0.47195255354827, -0.03229330488191 ]
      - [ -0.49057646389148, -0.04896982449789 ]
  - # 8
    frequency:   15.5648569299
    eigenvector:
    - # atom 1
      - [  0.37541201918915, -0.00000000000000 ]
      - [ -0.04453161406534, -0.02790407055385 ]
      - [ -0.02646845694332,  0.02648904234325 ]
    - # atom 2
      - [ -0.86823324000499,  0.00563667747790 ]
      - [  0.16704757776620,  0.05809446388317 ]
      - [  0.12082729601791, -0.04642812741916 ]
    - # atom 3
      - [  0.19486754386192, -0.02217084326041 ]
      - [ -0.08539106576399, -0.03221011693668 ]
      - [ -0.07529935474584,  0.02329041265335 ]
  - # 9
    frequency:   16.4664909644
    eigenvector:
    - # atom 1
      - [ -0.04199168375082,  0.00000000000000 ]
      - [ -0.12177465077248, -0.26905728020773 ]
      - [  0.12440713740555,  0.24826782139244 ]
    - # atom 2
      - [  0.08822580454264, -0.00181418965622 ]
      - [  0.29136645274954,  0.57670798826153 ]
      - [ -0.26937644472527, -0.55334079487696 ]
    - # atom 3
      - [ -0.03648741200145,  0.01568671474071 ]
      - [ -0.04953809544453, -0.10574214016751 ]
      - [  0.02764198360661,  0.11790486701164 ]

- q-position: [    0.0400000,    0.0000000,    0.0000000 ]
  distance:    0.0139547
  band:
  - # 1
    frequency:    0.5617158328
    eigenvector:
    - # atom 1
      - [ -0.24997759809651,  0.00000000000000 ]
      - [ -0.38018643426427,  0.30677085265096 ]
      - [ -0.52400069221139,  0.28912860428636 ]
    - # atom 2
      - [ -0.13578679256017, -0.00327163486542 ]
      - [ -0.18720294453705,  0.15208224545845 ]
      - [ -0.26889485648632,  0.14885002594780 ]
    - # atom 3
      - [ -0.13643204668466, -0.00117846642241 ]
      - [ -0.18869659044066,  0.15811253313711 ]
      - [ -0.26565339505795,  0.14075783106144 ]
  - # 2
    frequency:   -0.5428344719
    eigenvector:
    - # atom 1
      - [  0.37620713694528,  0.00000000000000 ]
      - [ -0.36789612185103, -0.37934863667531 ]
      - [  0.09162756312958,  0.42885368200251 ]
    - # atom 2
      - [  0.22440364844052, -0.00279267159394 ]
      - [ -0.21367702760305, -0.19597389549067 ]
      - [  0.06544346273583,  0.23539183818580 ]
    - # atom 3
      - [  0.19983654748922, -0.00169708833747 ]
      - [ -0.19401002871235, -0.21698482231472 ]
      - [  0.05144285365447,  0.25588543655920 ]
  - # 3
    frequency:    1.1543522704
    eigenvector:
    - # atom 1
      - [  0.63833652366241,  0.00000000000000 ]
      - [  0.07531716541515,  0.33834192849319 ]
      - [ -0.25101543489382, -0.14178775281819 ]
    - # atom 2
      - [  0.35166587261150,  0.01055500467975 ]
      - [  0.05090117984556,  0.19001052709289 ]
      - [ -0.14511464167778, -0.08949371810606 ]
    - # atom 3
      - [  0.37021492417673, -0.02197750090130 ]
      - [  0.03905970672606,  0.18345862084838 ]
      - [ -0.13730070775616, -0.07840351095676 ]
  - # 4
    frequency:    3.3036060292
    eigenvector:
    - # atom 1
      - [ -0.07667563104771,  0.00000000000000 ]
      - [ -0.38682719008904, -0.01580799210160 ]
      - [ -0.42774675760648, -0.00455945705275 ]
    - # atom 2
      - [  0.07252303975357,  0.00681801999672 ]
      - [  0.38265836162534,  0.01141846180315 ]
      - [  0.40679232422580,  0.00542623014307 ]
    - # atom 3
      - [  0.08060440119757,  0.00990036383768 ]
      - [  0.39743105474495,  0.00780133016002 ]
      - [  0.42328948723090,  0.00963863448334 ]
  - # 5
    frequency:    9.9108490634
    eigenvector:
    - # atom 1
      - [ -0.46933280061242,  0.00000000000000 ]
      - [  0.11788362205967,  0.05635107105834 ]
      - [ -0.02223376248907, -0.05676128141597 ]
    - # atom 2
      - [  0.00101280364042,  0.01326813472230 ]
      - [ -0.00132600600571,  0.01554739251287 ]
      - [ -0.00562679337382, -0.01407355565577 ]
    - # atom 3
      - [  0.81910194763509, -0.04386792862776 ]
      - [ -0.20494701625824, -0.14239184190016 ]
      - [  0.04450538631318,  0.14552124069551 ]
  - # 6
    frequency:   10.0158043003
    eigenvector:
    - # atom 1
      - [  0.13308597803523,  0.00000000000000 ]
      - [  0.24545617904175,  0.21236181068163 ]
      - [ -0.25354571641323, -0.19261789798762 ]
    - # atom 2
      - [  0.01475466526062, -0.01698822522527 ]
      - [  0.01474048606052,  0.02103944338639 ]
      - [ -0.02179244158096, -0.02930647339671 ]
    - # atom 3
      - [ -0.26238200806330,  0.04814280756890 ]
      - [ -0.43315017416189, -0.40616178652320 ]
      - [  0.45773097023890,  0.37388311502985 ]
  - # 7
    frequency:   15.3554214581
    eigenvector:
    - # atom 1
      - [ -0.06473364565538,  0.00000000000000 ]
      - [ -0.00135815980757,  0.01571227799020 ]
      - [ -0.00172195034021, -0.01682837807895 ]
    - # atom 2
      - [  0.23813688127098,  0.00842733546342 ]
      - [  0.46589961768654,  0.02634440854605 ]
      - [  0.48717802553034,  0.09933221407833 ]
    - # atom 3
      - [ -0.12037957187791, -0.00426076251257 ]
      - [ -0.46665888289079, -0.04998079840150 ]
      - [ -0.48278115052680, -0.07531968112240 ]
  - # 8
    frequency:   15.5096070877
    eigenvector:
    - # atom 1
      - [  0.37156136454175, -0.00000000000000 ]
      - [ -0.03739663957046, -0.03457437700518 ]
      - [ -0.03281525306618,  0.03287970613720 ]
    - # atom 2
      - [ -0.85674234418434,  0.00779518933012 ]
      - [  0.17332335637989,  0.07671820329191 ]
      - [  0.15705777060667, -0.05259908348493 ]
    - # atom 3
      - [  0.18761207716819, -0.03090036871768 ]
      - [ -0.10307996256718, -0.04575808815276 ]
      - [ -0.10127362841831,  0.02515754540404 ]
  - # 9
    frequency:   16.4335359276
    eigenvector:
    - # atom 1
      - [ -0.04892108894030,  0.00000000000000 ]
      - [ -0.04284943879383, -0.29149084728592 ]
      - [  0.05386332249264,  0.27012523043462 ]
    - # atom 2
      - [  0.10275333957987, -0.00317092105929 ]
      - [  0.13054089313911,  0.63315257247081 ]
      - [ -0.11088644790322, -0.60230208666422 ]
    - # atom 3
      - [ -0.04951983360214,  0.01345426404314 ]
      - [ -0.01855916854693, -0.11523534797037 ]
      - [ -0.01404151310926,  0.12217119673242 ]

- q-position: [    0.0500000,    0.0000000,    0.0000000 ]
  distance:    0.0174434
  band:
  - # 1
    frequency:    0.6892817103
    eigenvector:
    - # atom 1
      - [ -0.22841261119803,  0.00000000000000 ]
      - [ -0.38246494199235,  0.35553935822929 ]
      - [ -0.50484334235048,  0.32409408186043 ]
    - # atom 2
      - [ -0.12160075201982, -0.00567340402002 ]
      - [ -0.17539789177319,  0.16792676153384 ]
      - [ -0.24596153458904,  0.15638715660460 ]
    - # atom 3
      - [ -0.12200455163568, -0.00324653734350 ]
      - [ -0.17791738086407,  0.17394084618459 ]
      - [ -0.24093548774800,  0.14711865324638 ]
  - # 2
    frequency:   -0.5314951827
    eigenvector:
    - # atom 1
      - [  0.35477606251157,  0.00000000000000 ]
      - [ -0.41285076090625, -0.33100219152361 ]
      - [  0.17109517252487,  0.42041990489344 ]
    - # atom 2
      - [  0.21499226372820, -0.00627367578963 ]
      - [ -0.23850457642331, -0.16457607698688 ]
      - [  0.11413841014002,  0.22631794455885 ]
    - # atom 3
      - [  0.18670964827963,  0.00074227757234 ]
      - [ -0.21602981149956, -0.19433567216096 ]
      - [  0.09845511359069,  0.25422718989546 ]
  - # 3
    frequency:    1.3820333989
    eigenvector:
    - # atom 1
      - [  0.65723323326354,  0.00000000000000 ]
      - [  0.10096765398098,  0.29646600362448 ]
      - [ -0.25535300704549, -0.11642589879686 ]
    - # atom 2
      - [  0.36202447165461,  0.01422672196111 ]
      - [  0.06493770096906,  0.16487810893406 ]
      - [ -0.14920798005380, -0.07952135866214 ]
    - # atom 3
      - [  0.38388130529120, -0.02878949875347 ]
      - [  0.05243619631270,  0.15697601244036 ]
      - [ -0.14160391875951, -0.06564224595506 ]
  - # 4
    frequency:    3.3253287665
    eigenvector:
    - # atom 1
      - [ -0.07338173519378,  0.00000000000000 ]
      - [ -0.36906591874458, -0.01515456462025 ]
      - [ -0.41360999317932, -0.00036165943837 ]
    - # atom 2
      - [  0.07419845474367,  0.00729097620173 ]
      - [  0.39185675538624,  0.00997385202689 ]
      - [  0.41378529669066,  0.00292299345391 ]
    - # atom 3
      - [  0.08262631038570,  0.01069597469278 ]
      - [  0.40629698689987,  0.00558238251999 ]
      - [  0.42959771916839,  0.00785846210740 ]
  - # 5
    frequency:    9.9159129995
    eigenvector:
    - # atom 1
      - [ -0.45363066379494,  0.00000000000000 ]
      - [  0.14909620078182,  0.07433929991939 ]
      - [ -0.05414889808618, -0.07380139064771 ]
    - # atom 2
      - [  0.00341993636558,  0.01391627245390 ]
      - [ -0.00008822864326,  0.02017102675329 ]
      - [ -0.00807815379997, -0.01880710221568 ]
    - # atom 3
      - [  0.77978606073994, -0.04608310429685 ]
      - [ -0.25820582773716, -0.18597200962943 ]
      - [  0.10207596285489,  0.18758456867973 ]
  - # 6
    frequency:   10.0160111754
    eigenvector:
    - # atom 1
      - [  0.18638951793908,  0.00000000000000 ]
      - [  0.24264534583131,  0.19261058307304 ]
      - [ -0.26109402453137, -0.17278359349250 ]
    - # atom 2
      - [  0.01637068180093, -0.02462724522253 ]
      - [  0.01359313442193,  0.01853932764428 ]
      - [ -0.02008945723483, -0.02678886965106 ]
    - # atom 3
      - [ -0.35537466802880,  0.06849839194369 ]
      - [ -0.42185291544174, -0.36635476600764 ]
      - [  0.46416678335796,  0.33185116089511 ]
  - # 7
    frequency:   15.3357928616
    eigenvector:
    - # atom 1
      - [ -0.10221967421060,  0.00000000000000 ]
      - [ -0.00117263572423,  0.02277048969169 ]
      - [  0.00502152828964, -0.02447715675048 ]
    - # atom 2
      - [  0.32395237279546,  0.01173694789480 ]
      - [  0.44815969902331,  0.03641729059068 ]
      - [  0.45621025140733,  0.14092787399489 ]
    - # atom 3
      - [ -0.13706938842084, -0.00293434629701 ]
      - [ -0.45134759828093, -0.06845777375460 ]
      - [ -0.46283693220040, -0.10838107054959 ]
  - # 8
    frequency:   15.4421166647
    eigenvector:
    - # atom 1
      - [  0.36113960707051, -0.00000000000000 ]
      - [ -0.02931327090487, -0.03818017649237 ]