nqpoint: 357    
npath: 7      
segment_nqpoint:
- 51
- 51
- 51
- 51
- 51
- 51
- 51
labels:
- [ '$\Gamma$', 'X' ]
- [ 'Y', '$\Gamma$' ]
- [ '$\Gamma$', 'Z' ]
- [ 'R$_2$', '$\Gamma$' ]
- [ '$\Gamma$', 'T$_2$' ]
- [ 'U$_2$', '$\Gamma$' ]
- [ '$\Gamma$', 'V$_2$' ]
reciprocal_lattice:
- [   0.31798301,   0.07061630,  -0.12493420 ] # a*
- [   0.04049518,   0.24700179,  -0.24096899 ] # b*
- [  -0.00468169,  -0.05933884,   0.43831005 ] # c*
natom: 3      
lattice:
- [     3.255747184876678,    -0.575906207225079,    -0.043191371553332 ] # a
- [    -0.815573757834211,     4.808898310268921,     0.642322035414567 ] # b
- [     0.479628959244695,     2.479626003790611,     2.622307246568305 ] # c
points:
- symbol: V  # 1
  coordinates: [  0.722570972843221,  0.278460552178880,  0.554203845087735 ]
  mass: 50.941500
- symbol: O  # 2
  coordinates: [  0.054491194873380,  0.942807771251190,  0.890852050854599 ]
  mass: 15.999400
- symbol: O  # 3
  coordinates: [  0.722937832283392,  0.278731676569929,  0.054944104057665 ]
  mass: 15.999400

phonon:
- q-position: [    0.0000000,    0.0000000,    0.0000000 ]
  distance:    0.0000000
  band:
  - # 1
    frequency:   -0.0391290216
    eigenvector:
    - # atom 1
      - [ -0.19122540938016,  0.00000000000000 ]
      - [  0.00485441822201,  0.00000000000000 ]
      - [  0.76118715220930,  0.00000000000000 ]
    - # atom 2
      - [ -0.10716830161517,  0.00000000000000 ]
      - [  0.00480678172891,  0.00000000000000 ]
      - [  0.42397763536848,  0.00000000000000 ]
    - # atom 3
      - [ -0.10724581173291,  0.00000000000000 ]
      - [  0.00303351511557,  0.00000000000000 ]
      - [  0.42570805146260,  0.00000000000000 ]
  - # 2
    frequency:   -0.0060783980
    eigenvector:
    - # atom 1
      - [  0.34210119391646,  0.00000000000000 ]
      - [ -0.69915741141855,  0.00000000000000 ]
      - [  0.09129263327265,  0.00000000000000 ]
    - # atom 2
      - [  0.19171810317627,  0.00000000000000 ]
      - [ -0.39181304316786,  0.00000000000000 ]
      - [  0.05118624177428,  0.00000000000000 ]
    - # atom 3
      - [  0.19173009350617,  0.00000000000000 ]
      - [ -0.39183568238704,  0.00000000000000 ]
      - [  0.05120926003225,  0.00000000000000 ]
  - # 3
    frequency:   -0.0011724715
    eigenvector:
    - # atom 1
      - [  0.67870052256595, -0.00000000000000 ]
      - [  0.35411374361258,  0.00000000000000 ]
      - [  0.16821148931140,  0.00000000000000 ]
    - # atom 2
      - [  0.38027613916544,  0.00000000000000 ]
      - [  0.19835160935316,  0.00000000000000 ]
      - [  0.09417165648286,  0.00000000000000 ]
    - # atom 3
      - [  0.38033117406864,  0.00000000000000 ]
      - [  0.19832755063508,  0.00000000000000 ]
      - [  0.09416331011286,  0.00000000000000 ]
  - # 4
    frequency:    4.9169218334
    eigenvector:
    - # atom 1
      - [ -0.08225087889004,  0.00000000000000 ]
      - [ -0.42130768894586,  0.00000000000000 ]
      - [ -0.44809084134708,  0.00000000000000 ]
    - # atom 2
      - [  0.07395657212798,  0.00000000000000 ]
      - [  0.39132843619292,  0.00000000000000 ]
      - [  0.41372037397638,  0.00000000000000 ]
    - # atom 3
      - [  0.07285097910766,  0.00000000000000 ]
      - [  0.36068461123755,  0.00000000000000 ]
      - [  0.38700969075719,  0.00000000000000 ]
  - # 5
    frequency:   10.2210940092
    eigenvector:
    - # atom 1
      - [  0.03520792606754,  0.00000000000000 ]
      - [ -0.37519622558154,  0.00000000000000 ]
      - [  0.34408643680649,  0.00000000000000 ]
    - # atom 2
      - [ -0.00267504526765,  0.00000000000000 ]
      - [  0.04303648132349,  0.00000000000000 ]
      - [ -0.03213769900335,  0.00000000000000 ]
    - # atom 3
      - [ -0.05958917234117,  0.00000000000000 ]
      - [  0.62638111760330,  0.00000000000000 ]
      - [ -0.58377771284781,  0.00000000000000 ]
  - # 6
    frequency:   10.2845959957
    eigenvector:
    - # atom 1
      - [ -0.47391889164064,  0.00000000000000 ]
      - [  0.01960262448041,  0.00000000000000 ]
      - [  0.06996604115161,  0.00000000000000 ]
    - # atom 2
      - [ -0.02192311348617,  0.00000000000000 ]
      - [ -0.00050486024877,  0.00000000000000 ]
      - [  0.00054104566330,  0.00000000000000 ]
    - # atom 3
      - [  0.86759167536274,  0.00000000000000 ]
      - [ -0.03446432660616,  0.00000000000000 ]
      - [ -0.12544759407343,  0.00000000000000 ]
  - # 7
    frequency:   13.7749423496
    eigenvector:
    - # atom 1
      - [  0.01559931594308,  0.00000000000000 ]
      - [ -0.25794215420082,  0.00000000000000 ]
      - [  0.23920718115149,  0.00000000000000 ]
    - # atom 2
      - [ -0.04069941094895,  0.00000000000000 ]
      - [  0.64783757781383,  0.00000000000000 ]
      - [ -0.61989796656959,  0.00000000000000 ]
    - # atom 3
      - [  0.01438137969126,  0.00000000000000 ]
      - [ -0.18761343060895,  0.00000000000000 ]
      - [  0.18701162865136,  0.00000000000000 ]
  - # 8
    frequency:   15.6551332932
    eigenvector:
    - # atom 1
      - [  0.02733765355364, -0.00000000000000 ]
      - [ -0.01202511291769,  0.00000000000000 ]
      - [ -0.01798515730517,  0.00000000000000 ]
    - # atom 2
      - [ -0.15527503210160,  0.00000000000000 ]
      - [ -0.47434076060865,  0.00000000000000 ]
      - [ -0.47988184736202,  0.00000000000000 ]
    - # atom 3
      - [  0.10649209709471,  0.00000000000000 ]
      - [  0.49581666716611,  0.00000000000000 ]
      - [  0.51206812934836,  0.00000000000000 ]
  - # 9
    frequency:   15.9666955382
    eigenvector:
    - # atom 1
      - [ -0.39009051468508,  0.00000000000000 ]
      - [  0.02057687222159,  0.00000000000000 ]
      - [  0.04842522978562,  0.00000000000000 ]
    - # atom 2
      - [  0.88058222276291,  0.00000000000000 ]
      - [ -0.08621513866897,  0.00000000000000 ]
      - [ -0.14831346472982,  0.00000000000000 ]
    - # atom 3
      - [ -0.18429667533629,  0.00000000000000 ]
      - [  0.04954118071759,  0.00000000000000 ]
      - [  0.06153374418707,  0.00000000000000 ]

- q-position: [    0.0100000,    0.0000000,    0.0000000 ]
  distance:    0.0034887
  band:
  - # 1
    frequency:    0.1525882484
    eigenvector:
    - # atom 1
      - [ -0.07296661182107,  0.00000000000000 ]
      - [ -0.52796886485208, -0.04812450578422 ]
      - [ -0.48985152202338,  0.29866943244576 ]
    - # atom 2
      - [ -0.03946939813997, -0.00013396520316 ]
      - [ -0.29691648746231, -0.02642076956734 ]
      - [ -0.27206717737829,  0.16651859701930 ]
    - # atom 3
      - [ -0.04201444653435,  0.00010687480850 ]
      - [ -0.29429170134247, -0.02741995560341 ]
      - [ -0.27409201283649,  0.16743781702656 ]
  - # 2
    frequency:   -0.0648806060
    eigenvector:
    - # atom 1
      - [  0.27334221587604,  0.00000000000000 ]
      - [ -0.45895588124575, -0.31036409291627 ]
      - [  0.48328323794141, -0.00453294850007 ]
    - # atom 2
      - [  0.15405410333420, -0.00162623313348 ]
      - [ -0.25685476464662, -0.17133172656305 ]
      - [  0.26972162896492, -0.00444255592106 ]
    - # atom 3
      - [  0.15211621598654,  0.00229505671917 ]
      - [ -0.25599640165933, -0.17804612089172 ]
      - [  0.26929602985200,  0.00107227641372 ]
  - # 3
    frequency:    0.2632732491
    eigenvector:
    - # atom 1
      - [ -0.73073971098976,  0.00000000000000 ]
      - [ -0.11938588815368, -0.11156556954423 ]
      - [  0.22971572983254, -0.03287594061609 ]
    - # atom 2
      - [ -0.40925627173908, -0.00500716546960 ]
      - [ -0.06592653384470, -0.06405163865532 ]
      - [  0.12752506346116, -0.01366188908685 ]
    - # atom 3
      - [ -0.41015676919947,  0.00446137948314 ]
      - [ -0.06635207638014, -0.06033199066219 ]
      - [  0.12812952968172, -0.01863557009608 ]
  - # 4
    frequency:    4.9183513951
    eigenvector:
    - # atom 1
      - [  0.08219265289821,  0.00000000000000 ]
      - [  0.42056849469720, -0.00775757974448 ]
      - [  0.44726039055990, -0.01057061549266 ]
    - # atom 2
      - [ -0.07399108337437,  0.00204623112525 ]
      - [ -0.39169142081406,  0.00730647368358 ]
      - [ -0.41402472585257,  0.00966099282559 ]
    - # atom 3
      - [ -0.07287705453556,  0.00206254582609 ]
      - [ -0.36091732575806,  0.00742458012789 ]
      - [ -0.38727902752816,  0.00846757476652 ]
  - # 5
    frequency:   10.2197798200
    eigenvector:
    - # atom 1
      - [  0.04929609037621,  0.00000000000000 ]
      - [ -0.32951028567416,  0.17934422823731 ]
      - [  0.29836741922116, -0.16826834564481 ]
    - # atom 2
      - [  0.00068750498936,  0.00575477277175 ]
      - [  0.03437847788623, -0.02728271790908 ]
      - [ -0.02442670678316,  0.02271636432108 ]
    - # atom 3
      - [ -0.09107291306402, -0.01086118594348 ]
      - [  0.55692399425240, -0.28512037617931 ]
      - [ -0.51193295213784,  0.27289759170646 ]
  - # 6
    frequency:   10.2863933736
    eigenvector:
    - # atom 1
      - [ -0.47296733429485,  0.00000000000000 ]
      - [  0.01321026119780,  0.01724631062181 ]
      - [  0.07573684218724, -0.01654700379836 ]
    - # atom 2
      - [ -0.02178868325470,  0.00390076833210 ]
      - [ -0.00018161722867,  0.00261187486879 ]
      - [  0.00041690491032, -0.00323533754422 ]
    - # atom 3
      - [  0.86447700395173, -0.01101314400287 ]
      - [ -0.02307326677968, -0.03804615004252 ]
      - [ -0.13568869791609,  0.03846472978088 ]
  - # 7
    frequency:   13.7805594377
    eigenvector:
    - # atom 1
      - [  0.01542300234992,  0.00000000000000 ]
      - [ -0.25784747693343, -0.00735452168711 ]
      - [  0.23919548009943,  0.00604665685984 ]
    - # atom 2
      - [ -0.04020649073892, -0.00005129712290 ]
      - [  0.64707401829712,  0.02788936084380 ]
      - [ -0.61951927867829, -0.02189152628716 ]
    - # atom 3
      - [  0.01379876196725,  0.01213895801528 ]
      - [ -0.18670326104710, -0.02038010270513 ]
      - [  0.18640808331546,  0.01516407757658 ]
  - # 8
    frequency:   15.6536838402
    eigenvector:
    - # atom 1
      - [  0.02760126428579, -0.00000000000000 ]
      - [ -0.01211733940842,  0.00015411479897 ]
      - [ -0.01786119212051, -0.00257247959687 ]
    - # atom 2
      - [ -0.15532892069798, -0.01035671988238 ]
      - [ -0.47150199748661, -0.05131314459818 ]
      - [ -0.47740922578652, -0.04727806660322 ]
    - # atom 3
      - [  0.10618388942521,  0.00891981291264 ]
      - [  0.49317094303360,  0.05076510920019 ]
      - [  0.50944882410282,  0.05236433315093 ]
  - # 9
    frequency:   15.9637130607
    eigenvector:
    - # atom 1
      - [ -0.38999467501936,  0.00000000000000 ]
      - [  0.02071029400440,  0.00035513795896 ]
      - [  0.04827513322702, -0.00082960029358 ]
    - # atom 2
      - [  0.88052374524427,  0.00396025589859 ]
      - [ -0.08671114475321, -0.00273126341083 ]
      - [ -0.14813679135371, -0.00405087312166 ]
    - # atom 3
      - [ -0.18421271735962,  0.00675859793312 ]
      - [  0.04979525174874,  0.00783747254577 ]
      - [  0.06160377822888, -0.00172086249745 ]

- q-position: [    0.0200000,    0.0000000,    0.0000000 ]
  distance:    0.0069773
  band:
  - # 1
    frequency:    0.3005309498
    eigenvector:
    - # atom 1
      - [ -0.09816736910800,  0.00000000000000 ]
      - [ -0.53147263101040, -0.07889924441315 ]
      - [ -0.55558666445077,  0.10965136214308 ]
    - # atom 2
      - [ -0.05312175702804, -0.00000241358576 ]
      - [ -0.29679475331571, -0.04444096106915 ]
      - [ -0.30623895684668,  0.06191388248310 ]
    - # atom 3
      - [ -0.05576076156362,  0.00004974156524 ]
      - [ -0.29376033337566, -0.04447895179942 ]
      - [ -0.30863112694045,  0.06196236808875 ]
  - # 2
    frequency:   -0.0847557685
    eigenvector:
    - # atom 1
      - [  0.26377229844043,  0.00000000000000 ]
      - [ -0.52841758488401, -0.17609670999381 ]
      - [  0.48493357007748, -0.00353211860008 ]
    - # atom 2
      - [  0.14885217872714, -0.00378863173891 ]
      - [ -0.29607008065158, -0.09319518572706 ]
      - [  0.27089410885095, -0.00578152869361 ]
    - # atom 3
      - [  0.14664875473492,  0.00515252565162 ]
      - [ -0.29491067478882, -0.10732858317970 ]
      - [  0.27023691574679,  0.00571001962229 ]
  - # 3
    frequency:    0.5242623846
    eigenvector:
    - # atom 1
      - [ -0.73086726962795,  0.00000000000000 ]
      - [ -0.12010261217687, -0.05349883778273 ]
      - [  0.24907179627505, -0.01870074915034 ]
    - # atom 2
      - [ -0.40937116732086, -0.01018409170775 ]
      - [ -0.06635227486636, -0.03286013110028 ]
      - [  0.13820026594667, -0.00114901002103 ]
    - # atom 3
      - [ -0.41130038736378,  0.00907621471200 ]
      - [ -0.06698604276174, -0.02570574366867 ]
      - [  0.13918075652101, -0.01089468677085 ]
  - # 4
    frequency:    4.9226817421
    eigenvector:
    - # atom 1
      - [  0.08201537374518,  0.00000000000000 ]
      - [  0.41834588812293, -0.01544435969541 ]
      - [  0.44476492064675, -0.02103897765491 ]
    - # atom 2
      - [ -0.07409473043221,  0.00409751066318 ]
      - [ -0.39277577643066,  0.01468526343320 ]
      - [ -0.41493583464019,  0.01934503889702 ]
    - # atom 3
      - [ -0.07295405897162,  0.00413255936451 ]
      - [ -0.36161387860896,  0.01487638916327 ]
      - [ -0.38808365501190,  0.01696263836712 ]
  - # 5
    frequency:   10.2157693753
    eigenvector:
    - # atom 1
      - [  0.07578134252363,  0.00000000000000 ]
      - [ -0.31390752353725,  0.20477588716697 ]
      - [  0.27832925996544, -0.19255732235283 ]
    - # atom 2
      - [  0.00483963214664,  0.00894626238093 ]
      - [  0.02832742288439, -0.03660865735458 ]
      - [ -0.01829291615631,  0.03186107642347 ]
    - # atom 3
      - [ -0.14579698303256, -0.01758584708714 ]
      - [  0.53892028144425, -0.31329482665721 ]
      - [ -0.48463196865839,  0.30103463703130 ]
  - # 6
    frequency:   10.2918933271
    eigenvector:
    - # atom 1
      - [ -0.47037709662875,  0.00000000000000 ]
      - [ -0.00280923822647,  0.03010789733984 ]
      - [  0.09016446481249, -0.02904874747884 ]
    - # atom 2
      - [ -0.02147824062063,  0.00813526485821 ]
      - [  0.00061378385366,  0.00499566785542 ]
      - [  0.00011726286506, -0.00607054707370 ]
    - # atom 3
      - [  0.85588554656019, -0.02273237872047 ]
      - [  0.00537930848665, -0.06718179185507 ]
      - [ -0.16112331049450,  0.06861466309329 ]
  - # 7
    frequency:   13.7972846340
    eigenvector:
    - # atom 1
      - [  0.01488582292376,  0.00000000000000 ]
      - [ -0.25756705291938, -0.01455088568227 ]
      - [  0.23916103734060,  0.01197501648661 ]
    - # atom 2
      - [ -0.03872019514047,  0.00005940479448 ]
      - [  0.64484912355394,  0.05499757963332 ]
      - [ -0.61843712059316, -0.04311535272812 ]
    - # atom 3
      - [  0.01208855077060,  0.02406417616453 ]
      - [ -0.18404293613935, -0.04024907927472 ]
      - [  0.18465849217139,  0.02984859522871 ]
  - # 8
    frequency:   15.6493355020
    eigenvector:
    - # atom 1
      - [  0.02838592611413, -0.00000000000000 ]
      - [ -0.01239133340526,  0.00033192575213 ]
      - [ -0.01751107360239, -0.00505460696524 ]
    - # atom 2
      - [ -0.15557775871730, -0.02017467692683 ]
      - [ -0.46348158941344, -0.09986920452012 ]
      - [ -0.47045451543849, -0.09181940662454 ]
    - # atom 3
      - [  0.10534448995064,  0.01731445999477 ]
      - [  0.48572081060485,  0.09873821244234 ]
      - [  0.50208832606442,  0.10191057137743 ]
  - # 9
    frequency:   15.9548138725
    eigenvector:
    - # atom 1
      - [ -0.38970383811407,  0.00000000000000 ]
      - [  0.02111460443247,  0.00071520541056 ]
      - [  0.04781982068392, -0.00166080877002 ]
    - # atom 2
      - [  0.88034547457609,  0.00785135688456 ]
      - [ -0.08821502989365, -0.00548914537581 ]
      - [ -0.14760384841546, -0.00809545683463 ]
    - # atom 3
      - [ -0.18395763793698,  0.01352167570154 ]
      - [  0.05056718156999,  0.01572004655204 ]
      - [  0.06181802639349, -0.00345796127057 ]

- q-position: [    0.0300000,    0.0000000,    0.0000000 ]
  distance:    0.0104660
  band:
  - # 1
    frequency:    0.4473148311
    eigenvector:
    - # atom 1
      - [ -0.10390618469197,  0.00000000000000 ]
      - [ -0.53658238560563, -0.06751529193874 ]
      - [ -0.56428931714852,  0.05784131560861 ]
    - # atom 2
      - [ -0.05564113565934, -0.00000062865745 ]
      - [ -0.29585454914378, -0.03829634458642 ]
      - [ -0.30704376546339,  0.03368747588935 ]
    - # atom 3
      - [ -0.05823607724761,  0.00015178320825 ]
      - [ -0.29275583219554, -0.03800961978015 ]
      - [ -0.30950955899908,  0.03339105950507 ]
  - # 2
    frequency:   -0.1038252458
    eigenvector:
    - # atom 1
      - [  0.26217604750958,  0.00000000000000 ]
      - [ -0.54483074239561, -0.11698476437885 ]
      - [  0.48482879281322, -0.00611594543632 ]
    - # atom 2
      - [  0.14799242383866, -0.00588713478174 ]
      - [ -0.30559693200953, -0.05713926341125 ]
      - [  0.27122618876779, -0.00920516744075 ]
    - # atom 3
      - [  0.14585447412516,  0.00791923111453 ]
      - [ -0.30437369945546, -0.07864221728502 ]
      - [  0.27049953779444,  0.00824731767476 ]
  - # 3
    frequency:    0.7855544812
    eigenvector:
    - # atom 1
      - [  0.72992019845787,  0.00000000000000 ]
      - [  0.12068638047331,  0.03320204080997 ]
      - [ -0.25291620268149,  0.01444260484864 ]
    - # atom 2
      - [  0.40889701293274,  0.01534297189080 ]
      - [  0.06679016961168,  0.02285861529073 ]
      - [ -0.14015925481713, -0.00579809327306 ]
    - # atom 3
      - [  0.41255559804661, -0.01366519145301 ]
      - [  0.06770442349090,  0.01225100121388 ]
      - [ -0.14170587220973,  0.00874589956121 ]
  - # 4
    frequency:    4.9300376521
    eigenvector:
    - # atom 1
      - [  0.08171135121431,  0.00000000000000 ]
      - [  0.41462524787106, -0.02299084604666 ]
      - [  0.44059244614732, -0.03130447520117 ]
    - # atom 2
      - [ -0.07426773964309,  0.00615940506690 ]
      - [ -0.39456722069982,  0.02220987180318 ]
      - [ -0.41644721474881,  0.02907821376027 ]
    - # atom 3
      - [ -0.07307831634843,  0.00621748376782 ]
      - [ -0.36276891446895,  0.02238455906340 ]
      - [ -0.38941293227647,  0.02551455338290 ]
  - # 5
    frequency:   10.2089881044
    eigenvector:
    - # atom 1
      - [  0.10158840867986,  0.00000000000000 ]
      - [ -0.32213213779310,  0.18987525308359 ]
      - [  0.28082436896445, -0.17917321950882 ]
    - # atom 2
      - [  0.00773929995983,  0.01171705810703 ]
      - [  0.02656101320731, -0.04217257146002 ]
      - [ -0.01582150860203,  0.03848551269100 ]
    - # atom 3
      - [ -0.19603148452133, -0.02369560299331 ]
      - [  0.55686514337217, -0.27182023201337 ]
      - [ -0.49231298561736,  0.26293177724740 ]
  - # 6
    frequency:   10.3012850499
    eigenvector:
    - # atom 1
      - [ -0.46704214013816,  0.00000000000000 ]
      - [ -0.02204921189859,  0.03700771804752 ]
      - [  0.10746235741407, -0.03603923147285 ]
    - # atom 2
      - [ -0.02119525863104,  0.01280043504484 ]
      - [  0.00153040590542,  0.00709477160585 ]
      - [ -0.00021295314440, -0.00839799112626 ]
    - # atom 3
      - [  0.84401010681193, -0.03528410003737 ]
      - [  0.03928974669626, -0.08426240807260 ]
      - [ -0.19114527062467,  0.08748826243831 ]
  - # 7
    frequency:   13.8247464559
    eigenvector:
    - # atom 1
      - [ -0.01396341830025,  0.00000000000000 ]
      - [  0.25710810556195,  0.02147281815558 ]
      - [ -0.23910332440162, -0.01770364056254 ]
    - # atom 2
      - [  0.03621573958964, -0.00048104870669 ]
      - [ -0.64133860484189, -0.08068597398754 ]
      - [  0.61679633518541,  0.06313316815705 ]
    - # atom 3
      - [ -0.00935287872100, -0.03558847502706 ]
      - [  0.17982417175879,  0.05916770950241 ]
      - [ -0.18193083134235, -0.04363932733370 ]
  - # 8
    frequency:   15.6420883689
    eigenvector:
    - # atom 1
      - [  0.02967489371395, -0.00000000000000 ]
      - [ -0.01283961844071,  0.00055661293992 ]
      - [ -0.01699290263596, -0.00737714026443 ]
    - # atom 2
      - [ -0.15625291746204, -0.02902176421098 ]
      - [ -0.45159539797181, -0.14345574729242 ]
      - [ -0.46024551296201, -0.13140728214331 ]
    - # atom 3
      - [  0.10420002318903,  0.02475612114204 ]
      - [  0.47475799400162,  0.14166850889416 ]
      - [  0.49130648948053,  0.14637062531837 ]
  - # 9
    frequency:   15.9401425622
    eigenvector:
    - # atom 1
      - [ -0.38920796760918,  0.00000000000000 ]
      - [  0.02180215235372,  0.00108560169402 ]
      - [  0.04704398658668, -0.00249558550061 ]
    - # atom 2
      - [  0.88003855192488,  0.01160436679775 ]
      - [ -0.09077523427134, -0.00829823538076 ]
      - [ -0.14670543724314, -0.01212460016837 ]
    - # atom 3
      - [ -0.18352172143692,  0.02029130161563 ]
      - [  0.05188651588737,  0.02369113815361 ]
      - [  0.06218903899648, -0.00523023368503 ]

- q-position: [    0.0400000,    0.0000000,    0.0000000 ]
  distance:    0.0139547
  band:
  - # 1
    frequency:    0.5918251179
    eigenvector:
    - # atom 1
      - [ -0.10628552017283,  0.00000000000000 ]
      - [ -0.54115498388952, -0.06187585376028 ]
      - [ -0.56974955831173,  0.03011694834689 ]
    - # atom 2
      - [ -0.05600833339462,  0.00003724243676 ]
      - [ -0.29305018422755, -0.03511749009833 ]
      - [ -0.30441050633317,  0.01893629765278 ]
    - # atom 3
      - [ -0.05850960743225,  0.00028790754841 ]
      - [ -0.28993644142565, -0.03465076885355 ]
      - [ -0.30692976222535,  0.01839526029446 ]
  - # 2
    frequency:   -0.1162894510
    eigenvector:
    - # atom 1
      - [  0.26225616232340,  0.00000000000000 ]
      - [ -0.55051209624057, -0.08442993001050 ]
      - [  0.48416532310545, -0.00868504740016 ]
    - # atom 2
      - [  0.14804696582533, -0.00797093838638 ]
      - [ -0.30919562020266, -0.03586756613652 ]
      - [  0.27137941663887, -0.01273776573568 ]
    - # atom 3
      - [  0.14609451869822,  0.01063258717173 ]
      - [ -0.30798094135487, -0.06476600031448 ]
      - [  0.27063065617315,  0.01071607841000 ]
  - # 3
    frequency:    1.0466497444
    eigenvector:
    - # atom 1
      - [  0.72853484845368,  0.00000000000000 ]
      - [  0.12144306549073,  0.02238764443000 ]
      - [ -0.25446377939804,  0.01280375373523 ]
    - # atom 2
      - [  0.40817914920760,  0.02052043151994 ]
      - [  0.06736667318774,  0.01816191067536 ]
      - [ -0.14076328244467, -0.01122339668406 ]
    - # atom 3
      - [  0.41427145735679, -0.01825566371190 ]
      - [  0.06867199612745,  0.00414099551175 ]
      - [ -0.14310497885457,  0.00810970013760 ]
  - # 4
    frequency:    4.9406262599
    eigenvector:
    - # atom 1
      - [  0.08126815160733,  0.00000000000000 ]
      - [  0.40938377378576, -0.03032992246201 ]
      - [  0.43472430165078, -0.04126955759229 ]
    - # atom 2
      - [ -0.07451011777876,  0.00823845802131 ]
      - [ -0.39704034019234,  0.02995604861941 ]
      - [ -0.41854594219600,  0.03889237629015 ]
    - # atom 3
      - [ -0.07324366475786,  0.00832469306690 ]
      - [ -0.36437159731683,  0.02998184532151 ]
      - [ -0.39124750645804,  0.03415621384732 ]
  - # 5
    frequency:   10.1995319126
    eigenvector:
    - # atom 1
      - [  0.12280385903732,  0.00000000000000 ]
      - [ -0.33234941697265,  0.16892727878074 ]
      - [  0.28614580832579, -0.16013934874890 ]
    - # atom 2
      - [  0.00965896662416,  0.01435170202096 ]
      - [  0.02626275678193, -0.04725527357651 ]
      - [ -0.01480411363068,  0.04484957814830 ]
    - # atom 3
      - [ -0.23525577668603, -0.02950481921555 ]
      - [  0.57492640673813, -0.21934933172134 ]
      - [ -0.50213642751556,  0.21433292148965 ]
  - # 6
    frequency:   10.3146472941
    eigenvector:
    - # atom 1
      - [ -0.46411666491875,  0.00000000000000 ]
      - [ -0.03973282075216,  0.03905186320077 ]
      - [  0.12340654753866, -0.03852438092033 ]
    - # atom 2
      - [ -0.02111021261634,  0.01781141708343 ]
      - [  0.00231102995353,  0.00898379476410 ]
      - [ -0.00046975311331, -0.01035283492704 ]
    - # atom 3
      - [  0.83139517789439, -0.04835382615459 ]
      - [  0.07001082017269, -0.09158051671090 ]
      - [ -0.21801624322740,  0.09719419125890 ]
  - # 7
    frequency:   13.8623471176
    eigenvector:
    - # atom 1
      - [ -0.01261616026346,  0.00000000000000 ]
      - [  0.25647001338059,  0.02809791405090 ]
      - [ -0.23901240198419, -0.02323499341611 ]
    - # atom 2
      - [  0.03264547481190, -0.00133934689425 ]
      - [ -0.63676369579681, -0.10461561080346 ]
      - [  0.61478274968339,  0.08168305189675 ]
    - # atom 3
      - [ -0.00572614873597, -0.04657014547076 ]
      - [  0.17430481916395,  0.07683407442623 ]
      - [ -0.17845610067841, -0.05624931294743 ]
  - # 8
    frequency:   15.6319426886
    eigenvector:
    - # atom 1
      - [  0.03144509896966, -0.00000000000000 ]
      - [ -0.01345141419586,  0.00085091406806 ]
      - [ -0.01638403165732, -0.00950296200265 ]
    - # atom 2
      - [ -0.15765911437804, -0.03662877156484 ]
      - [ -0.43757436861854, -0.18069388742161 ]
      - [ -0.44839387433076, -0.16461986054111 ]
    - # atom 3
      - [  0.10304801371279,  0.03096539617770 ]
      - [  0.46197996696600,  0.17813232537470 ]
      - [  0.47883965854499,  0.18431651680309 ]
  - # 9
    frequency:   15.9199396504
    eigenvector:
    - # atom 1
      - [ -0.38849006093996,  0.00000000000000 ]
      - [  0.02279425792614,  0.00147270380800 ]
      - [  0.04592131057246, -0.00333658625408 ]
    - # atom 2
      - [  0.87958706340860,  0.01515086031158 ]
      - [ -0.09447527962273, -0.01117840871484 ]
      - [ -0.14542464156522, -0.01612274365038 ]
    - # atom 3
      - [ -0.18288846112622,  0.02706443386987 ]
      - [  0.05380375257895,  0.03179015220739 ]
      - [  0.06273800873952, -0.00706276303927 ]

- q-position: [    0.0500000,    0.0000000,    0.0000000 ]
  distance:    0.0174434
  band:
  - # 1
    frequency:    0.7330422813
    eigenvector:
    - # atom 1
      - [ -0.10775125120612,  0.00000000000000 ]
      - [ -0.54606821524252, -0.05972468603922 ]
      - [ -0.57518837803088,  0.01154014099415 ]
    - # atom 2
      - [ -0.05558447785784,  0.00012547573277 ]
      - [ -0.28887636323334, -0.03364024417597 ]
      - [ -0.30012004386526,  0.00937209356233 ]
    - # atom 3
      - [ -0.05795609503862,  0.00046321168419 ]
      - [ -0.28577781509069, -0.03309147595988 ]
      - [ -0.30270264214624,  0.00863275476074 ]
  - # 2
    frequency:   -0.1152432079
    eigenvector:
    - # atom 1
      - [  0.26300665248257,  0.00000000000000 ]
      - [ -0.55273149615820, -0.06368707560877 ]
      - [  0.48316559436189, -0.01099752031594 ]
    - # atom 2
      - [  0.14847055057980, -0.01006345002112 ]
      - [ -0.31093119378012, -0.02107561179200 ]
      - [  0.27146038841742, -0.01627571696404 ]
    - # atom 3
      - [  0.14679279835432,  0.01330322197706 ]
      - [ -0.30978923060054, -0.05743497968479 ]
      - [  0.27073556611656,  0.01325191794080 ]
  - # 3
    frequency:    1.3073556317
    eigenvector:
    - # atom 1
      - [  0.72675436650637,  0.00000000000000 ]
      - [  0.12238966247869,  0.01541103530497 ]
      - [ -0.25539080074317,  0.01218837674289 ]
    - # atom 2
      - [  0.40722229242171,  0.02573166391549 ]
      - [  0.06807420277376,  0.01559504136466 ]
      - [ -0.14094424359004, -0.01599567471984 ]
    - # atom 3
      - [  0.41646353659059, -0.02285295540725 ]
      - [  0.06989326733136, -0.00177293561955 ]
      - [ -0.14432521375679,  0.00810379747703 ]
  - # 4
    frequency:    4.9547353526
    eigenvector:
    - # atom 1
      - [  0.08066919185134,  0.00000000000000 ]
      - [  0.40259306443089, -0.03739751775448 ]
      - [  0.42713739243570, -0.05084077209350 ]
    - # atom 2
      - [ -0.07482112536349,  0.01034254064996 ]
      - [ -0.40015623997634,  0.03800260745820 ]
      - [ -0.42120961084472,  0.04882743788617 ]
    - # atom 3
      - [ -0.07344140530243,  0.01046141232420 ]
      - [ -0.36640286622525,  0.03770600192158 ]
      - [ -0.39355697420256,  0.04292529516760 ]
  - # 5
    frequency:   10.1876804177
    eigenvector:
    - # atom 1
      - [  0.13904670518466,  0.00000000000000 ]
      - [ -0.34032959958763,  0.14981386463469 ]
      - [  0.29037512233959, -0.14279996635368 ]
    - # atom 2
      - [  0.01090111458140,  0.01684210617956 ]
      - [  0.02649574221258, -0.05217787223485 ]
      - [ -0.01440621418877,  0.05101202536051 ]
    - # atom 3
      - [ -0.26350217592117, -0.03498546056795 ]
      - [  0.58698365801935, -0.17024603832575 ]
      - [ -0.50827469921536,  0.16887022431393 ]
  - # 6
    frequency:   10.3319136698
    eigenvector:
    - # atom 1
      - [ -0.46236064272218,  0.00000000000000 ]
      - [ -0.05410268863425,  0.03814714549630 ]
      - [  0.13650455324688, -0.03825336029327 ]
    - # atom 2
      - [ -0.02129447586957,  0.02306104368614 ]
      - [  0.00286544673840,  0.01075217612008 ]
      - [ -0.00061832082226, -0.01211497032910 ]
    - # atom 3
      - [  0.81960554457260, -0.06157615163497 ]
      - [  0.09436501620976, -0.09299534881864 ]
      - [ -0.23900647349867,  0.10131840779174 ]
  - # 7
    frequency:   13.9092911537
    eigenvector:
    - # atom 1
      - [ -0.01078994616103,  0.00000000000000 ]
      - [  0.25561920178316,  0.03459623798253 ]
      - [ -0.23884972232847, -0.02874759206482 ]
    - # atom 2
      - [  0.02793297563452, -0.00273105788353 ]
      - [ -0.63127119222259, -0.12700236513700 ]
      - [  0.61253081827618,  0.09902824116112 ]
    - # atom 3
      - [ -0.00131544768547, -0.05691769088721 ]
      - [  0.16770960931991,  0.09315588450145 ]
      - [ -0.17445257688431, -0.06759493462150 ]
  - # 8
    frequency:   15.6188990286
    eigenvector:
    - # atom 1
      - [  0.03367146801949, -0.00000000000000 ]
      - [ -0.01421441296547,  0.00123796198995 ]