labels:
- - $\Gamma$
  - X
- - Y
  - $\Gamma$
- - $\Gamma$
  - Z
- - R$_2$
  - $\Gamma$
- - $\Gamma$
  - T$_2$
- - U$_2$
  - $\Gamma$
- - $\Gamma$
  - V$_2$
lattice:
- - 3.255747184876677
  - -0.575906207225079
  - -0.043191371553332
- - -0.815573757834211
  - 4.808898310268921
  - 0.642322035414567
- - 0.479628959244695
  - 2.479626003790611
  - 2.622307246568305
natom: 3
npath: 7
nqpoint: 357
phonon:
- band:
  - eigenvector:
    - - - -0.45639544418777
        - 0.0
      - - 0.07832784079077
        - 0.0
      - - 0.00646219689603
        - 0.0
    - - - 0.86897101299814
        - 0.0
      - - -0.16203595442474
        - 0.0
      - - 0.00536988291814
        - 0.0
    - - - -0.05508469712329
        - 0.0
      - - 0.03152385474362
        - 0.0
      - - 0.01014904025087
        - 0.0
    frequency: -5.590972119259502
  - eigenvector:
    - - - 0.06683953101459
        - -0.0
      - - 0.37149134526612
        - 0.0
      - - -0.33991616124736
        - 0.0
    - - - -0.11266844697647
        - 0.0
      - - -0.61444724174156
        - 0.0
      - - 0.59071928854091
        - 0.0
    - - - -0.00535402306951
        - 0.0
      - - -0.05156186283603
        - 0.0
      - - 0.01036821414936
        - 0.0
    frequency: -4.115028145438291
  - eigenvector:
    - - - 0.70849638446908
        - 0.0
      - - -0.31081747560616
        - 0.0
      - - 0.12984612546105
        - 0.0
    - - - 0.39677949077526
        - 0.0
      - - -0.17411338163483
        - 0.0
      - - 0.07169187526977
        - 0.0
    - - - 0.39509993345053
        - 0.0
      - - -0.17428389513142
        - 0.0
      - - 0.07209272706814
        - 0.0
    frequency: -0.006341539136262557
  - eigenvector:
    - - - -0.33604581273198
        - 0.0
      - - -0.67446702529222
        - 0.0
      - - 0.21945689755837
        - 0.0
    - - - -0.18790953595928
        - 0.0
      - - -0.37555793948638
        - 0.0
      - - 0.12531617028044
        - 0.0
    - - - -0.18807730249416
        - 0.0
      - - -0.37528791689442
        - 0.0
      - - 0.12543571749284
        - 0.0
    frequency: -0.0023405677460102904
  - eigenvector:
    - - - -0.01178378609386
        - 0.0
      - - 0.27665481558024
        - 0.0
      - - 0.76279461556906
        - 0.0
    - - - -0.0262041727321
        - 0.0
      - - 0.12498888905541
        - 0.0
      - - 0.39476274597756
        - 0.0
    - - - -0.02051975732385
        - 0.0
      - - 0.12084262015413
        - 0.0
      - - 0.39280672589257
        - 0.0
    frequency: 0.3047507263
  - eigenvector:
    - - - 0.0686234372703
        - 0.0
      - - 0.39331412906698
        - 0.0
      - - 0.42146824780698
        - 0.0
    - - - -0.05102643989368
        - 0.0
      - - -0.35363459873244
        - 0.0
      - - -0.41740824984257
        - 0.0
    - - - -0.07341704853964
        - 0.0
      - - -0.39449473863107
        - 0.0
      - - -0.44727217661579
        - 0.0
    frequency: 1.6555787644
  - eigenvector:
    - - - -0.4061497644608
        - 0.0
      - - 0.07928996097455
        - 0.0
      - - 0.00124739008658
        - 0.0
    - - - -0.15194359571637
        - 0.0
      - - 0.03502552571357
        - 0.0
      - - -0.00325365255348
        - 0.0
    - - - 0.87955959167349
        - 0.0
      - - -0.17514397633582
        - 0.0
      - - 0.01136649452716
        - 0.0
    frequency: 9.9928144607
  - eigenvector:
    - - - -0.04966915197682
        - 0.0
      - - -0.25795515770092
        - 0.0
      - - 0.24427237560893
        - 0.0
    - - - -0.04465274983916
        - 0.0
      - - -0.16965833133392
        - 0.0
      - - 0.19069536419823
        - 0.0
    - - - 0.13357395352517
        - 0.0
      - - 0.63182550924809
        - 0.0
      - - -0.62220181925876
        - 0.0
    frequency: 10.3204547771
  - eigenvector:
    - - - -0.00831089470422
        - 0.0
      - - -0.01685247748526
        - 0.0
      - - -0.01523936457487
        - 0.0
    - - - 0.10526234386697
        - 0.0
      - - 0.50413223698133
        - 0.0
      - - 0.51355178722277
        - 0.0
    - - - -0.09045320133434
        - 0.0
      - - -0.47436673574062
        - 0.0
      - - -0.48707719268148
        - 0.0
    frequency: 15.283662912
  distance: 0.0
  q-position:
  - 0.0
  - 0.0
  - 0.0
- band:
  - eigenvector:
    - - - -0.45680288654017
        - 0.0
      - - 0.07835500670879
        - -2.29703138e-05
      - - 0.0065050495081
        - 0.00010963523194
    - - - 0.86842440056263
        - -0.02424327102731
      - - -0.16189096427638
        - 0.00418920897855
      - - 0.00534674058419
        - 0.00030226240073
    - - - -0.05516890030749
        - -0.00145471868592
      - - 0.03149910348366
        - -0.00150282154699
      - - 0.01020827376902
        - 0.00114650577922
    frequency: -5.587526434586948
  - eigenvector:
    - - - 0.06694291923552
        - -0.0
      - - 0.37173729481347
        - -0.00711417894323
      - - -0.34002449021153
        - 0.0080914101977
    - - - -0.11224934482664
        - 0.00766242816964
      - - -0.61344229154369
        - 0.03229564262131
      - - 0.58955060472433
        - -0.03398382252296
    - - - -0.00504631025328
        - 0.0050214455455
      - - -0.05182017432792
        - -0.00128019741764
      - - 0.01026966133722
        - -0.00403482276833
    frequency: -4.1104756579944
  - eigenvector:
    - - - 0.74928037797094
        - 0.0
      - - -0.08372102943561
        - 0.06754868354352
      - - -0.14942438827712
        - 0.15244662246371
    - - - 0.42563837460409
        - -0.01947236975164
      - - -0.02955288832497
        - 0.01596267517879
      - - -0.06321020799469
        - 0.06845856382543
    - - - 0.42468305978093
        - -0.01244243292926
      - - -0.02737957930523
        - 0.01038811885135
      - - -0.06274438482401
        - 0.06911473771441
    frequency: 0.67621471
  - eigenvector:
    - - - 0.14451542934196
        - 0.0
      - - 0.18643653908379
        - 0.42974956814732
      - - 0.30143736820233
        - -0.55167668226919
    - - - 0.07257593245474
        - 0.00598361795312
      - - 0.0831716578698
        - 0.24275247710469
      - - 0.12472264687814
        - -0.30887912188863
    - - - 0.07847741890087
        - 0.00454683371758
      - - 0.07004060702322
        - 0.24285372740647
      - - 0.13288557411687
        - -0.30761564193611
    frequency: 0.4544256533
  - eigenvector:
    - - - -0.1729015742759
        - 0.0
      - - -0.21296470371305
        - 0.59500938775386
      - - -0.43738829716876
        - 0.15910926899166
    - - - -0.08282080495936
        - -0.00434601597988
      - - -0.07599340319568
        - 0.33749764525354
      - - -0.20349975200738
        - 0.09900060587926
    - - - -0.08208292726406
        - -0.00233755615502
      - - -0.07655847812319
        - 0.33999133347864
      - - -0.19721545985976
        - 0.09605837002325
    frequency: 0.1786502777
  - eigenvector:
    - - - 0.07855297655893
        - 0.0
      - - 0.372237815778
        - -0.11550017583316
      - - 0.39576424767543
        - -0.10111828040646
    - - - -0.03973039851704
        - 0.02893279053094
      - - -0.32929356207802
        - 0.13045259940652
      - - -0.38726876343943
        - 0.17367420669975
    - - - -0.06083731658872
        - 0.03734277923556
      - - -0.36581435272326
        - 0.14718202766673
      - - -0.41632965932516
        - 0.18209227638411
    frequency: 1.6642539598
  - eigenvector:
    - - - -0.40727192406541
        - 0.0
      - - 0.07983435718025
        - 0.00133183626613
      - - 0.00095543983949
        - -0.00160435923249
    - - - -0.15274530528812
        - 0.00237862271163
      - - 0.03541174983535
        - -0.00253846429464
      - - -0.00354545790594
        - 0.00181563208083
    - - - 0.87848276608668
        - -0.00877953182427
      - - -0.17585575797351
        - -0.01068184223659
      - - 0.01221688071286
        - 0.01183443605476
    frequency: 9.9973450244
  - eigenvector:
    - - - -0.05039175984835
        - 0.0
      - - -0.25813498993039
        - -0.00481279734974
      - - 0.24446264595448
        - 0.00405273559817
    - - - -0.04498501142249
        - -0.00203101560234
      - - -0.16996059766594
        - 0.00251411639359
      - - 0.19129824040941
        - -0.0015520526125
    - - - 0.13480114352551
        - -0.01458258682883
      - - 0.63111339024602
        - 0.01388014456676
      - - -0.62171568277093
        - -0.00980494746292
    frequency: 10.3229050434
  - eigenvector:
    - - - -0.00828855697438
        - 0.0
      - - -0.01680346834878
        - 0.00021220095743
      - - -0.01527536913099
        - -0.0015862562866
    - - - 0.10525442071525
        - 0.00236374894133
      - - 0.50402286526324
        - 0.01098380316572
      - - 0.51329009207381
        - 0.01300938260211
    - - - -0.09043053099901
        - -0.00205834017747
      - - -0.47432076055256
        - -0.01109524010537
      - - -0.48695135102954
        - -0.01124656541199
    frequency: 15.2818502175
  distance: 0.0034887
  q-position:
  - 0.01
  - 0.0
  - 0.0
- band:
  - eigenvector:
    - - - -0.45802738848533
        - 0.0
      - - 0.07843572728242
        - -4.540419603e-05
      - - 0.00663465311308
        - 0.00022066959602
    - - - 0.86678206971275
        - -0.04845345202617
      - - -0.16145462605412
        - 0.00835809277588
      - - 0.00527675933207
        - 0.00061635522326
    - - - -0.05542339703488
        - -0.00293052575076
      - - 0.03142404959155
        - -0.00301525631588
      - - 0.01038731017716
        - 0.00230378982866
    frequency: -5.577166946899848
  - eigenvector:
    - - - -0.06724975466199
        - 0.0
      - - -0.3724849945625
        - 0.01410113342439
      - - 0.34035614660126
        - -0.01606915716473
    - - - 0.11099649769843
        - -0.01521297858519
      - - 0.61045246026747
        - -0.06423319769501
      - - -0.58606709502983
        - 0.06762444883354
    - - - 0.00412106951915
        - -0.01004219847606
      - - 0.05259619922465
        - 0.00254486778703
      - - -0.00997582981654
        - 0.00808561937504
    frequency: -4.0967695105444895
  - eigenvector:
    - - - -0.7523946872938
        - 0.0
      - - 0.08506409829585
        - -0.07260265734035
      - - 0.16381713051352
        - -0.07875157280599
    - - - -0.43395142207467
        - 0.03812008361009
      - - -0.00637191299549
        - 0.02743467868485
      - - 0.03265066686217
        - 0.01848732166837
    - - - -0.43904728490671
        - 0.02749455311893
      - - -0.00942887033858
        - 0.03980221752641
      - - 0.02944762302522
        - 0.01817928668776
    frequency: 1.3247651634
  - eigenvector:
    - - - 0.06460069986876
        - 0.0
      - - -0.26630755703575
        - 0.47482647140913
      - - 0.50376391492684
        - -0.27377602396655
    - - - 0.02522901252759
        - 0.00094897297944
      - - -0.1809647415328
        - 0.26152429380357
      - - 0.21581315117228
        - -0.18858792613786
    - - - 0.03378398627275
        - 0.00713897715889
      - - -0.20291787734408
        - 0.24668236014464
      - - 0.22974499432843
        - -0.17547423417994
    frequency: 0.8144027607
  - eigenvector:
    - - - 0.14273374279029
        - 0.0
      - - 0.45111624073411
        - -0.35756264887711
      - - 0.56200997372249
        - -0.1337991525498
    - - - 0.05778369485255
        - -0.0017059802963
      - - 0.17366048121285
        - -0.2379058460075
      - - 0.23141954186355
        - -0.12275886977895
    - - - 0.05704329666527
        - -0.0046264837903
      - - 0.17076346896644
        - -0.24241017288398
      - - 0.22334519101448
        - -0.12127534450309
    frequency: 0.2296036887
  - eigenvector:
    - - - 0.15354125879538
        - 0.0
      - - 0.30877747255583
        - -0.21306123771761
      - - 0.32051651158751
        - -0.15885920965748
    - - - 0.01836104261463
        - 0.04874489947263
      - - -0.2644955835002
        - 0.23163834407628
      - - -0.30515193364343
        - 0.32551837461339
    - - - 0.00113279777377
        - 0.06566634717929
      - - -0.2888013739994
        - 0.25953466101261
      - - -0.33233789635402
        - 0.341739276184
    frequency: 1.6964598187
  - eigenvector:
    - - - -0.41064794949944
        - 0.0
      - - 0.08150343009656
        - 0.00269285174078
      - - 4.936646479e-05
        - -0.00322517734212
    - - - -0.15516352432637
        - 0.00488908146258
      - - 0.03659937308338
        - -0.00514087060332
      - - -0.00445001144554
        - 0.00364746951477
    - - - 0.87519152834928
        - -0.01754507174568
      - - -0.17806284163762
        - -0.02134520304698
      - - 0.01484742284342
        - 0.02363567294287
    frequency: 10.0110302377
  - eigenvector:
    - - - -0.05263268371332
        - 0.0
      - - -0.25866628337414
        - -0.00924741423341
      - - 0.24504010497948
        - 0.00773701491174
    - - - -0.0460268924771
        - -0.00399475343077
      - - -0.17085396192947
        - 0.00534051409236
      - - 0.19310314571838
        - -0.00339141131588
    - - - 0.1385223575998
        - -0.02938628217776
      - - 0.62899326728703
        - 0.02657000772032
      - - -0.62027980757945
        - -0.01842921764068
    frequency: 10.3303001089
  - eigenvector:
    - - - 0.00822123454137
        - 0.0
      - - 0.01665704849576
        - -0.00041733690528
      - - 0.01538118142074
        - 0.00318539095721
    - - - -0.10522798853171
        - -0.00479839025875
      - - -0.50368076795724
        - -0.02228750267163
      - - -0.51248714456045
        - -0.02635023590113
    - - - 0.0903597694189
        - 0.00417351485533
      - - 0.47416749023386
        - 0.02251673020103
      - - 0.48655768698162
        - 0.02282849937396
    frequency: 15.2764180757
  distance: 0.0069773
  q-position:
  - 0.02
  - 0.0
  - 0.0
- band:
  - eigenvector:
    - - - -0.46007548365281
        - 0.0
      - - 0.07856762477992
        - -6.674055346e-05
      - - 0.00685418542111
        - 0.0003345384116
    - - - 0.86403645964617
        - -0.07259717647045
      - - -0.16072279489704
        - 0.01248575427056
      - - 0.00515826302149
        - 0.00095455069191
    - - - -0.05585393396483
        - -0.00444897790056
      - - 0.03129626628189
        - -0.00454706976078
      - - 0.01069020714549
        - 0.00348283187932
    frequency: -5.559825928598656
  - eigenvector:
    - - - -0.06774994135963
        - 0.0
      - - -0.37376369406991
        - 0.02083762445213
      - - 0.34093049702608
        - -0.02382423137511
    - - - 0.10892259921721
        - -0.02254309361283
      - - 0.60555022938396
        - -0.09547102354711
      - - -0.5803335529708
        - 0.10059620291584
    - - - 0.00257157384181
        - -0.01506280385452
      - - 0.05389342603675
        - 0.00377873147745
      - - -0.00949192958793
        - 0.01217025083957
    frequency: -4.073761561940947
  - eigenvector:
    - - - -0.75025407734841
        - 0.0
      - - -0.03294353831256
        - 0.03644032012072
      - - 0.0369700543907
        - 0.00854848455707
    - - - -0.41054815298329
        - 0.02704020170489
      - - 0.08086088525814
        - -0.06803906634798
      - - 0.1278291395666
        - -0.12447899552687
    - - - -0.41615033827151
        - 0.00410726612416
      - - 0.08472898606416
        - -0.06476762787329
      - - 0.13589083455571
        - -0.13395364862681
    frequency: 2.0034981874
  - eigenvector:
    - - - 0.05441255011072
        - 0.0
      - - -0.42949068964984
        - 0.33437258770714
      - - 0.56424160840916
        - -0.07073913435982
    - - - 0.01257256902745
        - -0.00418371628675
      - - -0.32002503080127
        - 0.16485913485291
      - - 0.20009575347993
        - -0.12155857798314
    - - - 0.01883555907425
        - 0.00857398909186
      - - -0.34664080916744
        - 0.13406802156676
      - - 0.21188340772874
        - -0.09673414889446
    frequency: 1.182012968
  - eigenvector:
    - - - -0.13526587159607
        - 0.0
      - - -0.52555416346521
        - 0.2279086584229
      - - -0.61827753544401
        - 0.07358575918682
    - - - -0.04705793804485
        - 0.00733309694249
      - - -0.17846576669153
        - 0.19478834163483
      - - -0.21909909777896
        - 0.12241158037376
    - - - -0.0453170332729
        - 0.01085309659637
      - - -0.17185106160973
        - 0.20105624540564
      - - -0.20933334422784
        - 0.12195736568237
    frequency: 0.2486066885
  - eigenvector:
    - - - -0.15173417403164
        - 0.0
      - - 0.27218308537962
        - -0.27901992854167
      - - 0.31102332898883
        - -0.11397593621235
    - - - -0.14292419620889
        - 0.06917692136652
      - - -0.20724106473557
        - 0.24318387198096
      - - -0.20536218035469
        - 0.39982404568697
    - - - -0.16178081170151
        - 0.08233996327508
      - - -0.21779932890479
        - 0.27693084726162
      - - -0.23444831498487
        - 0.41705621738774
    frequency: 1.7250142211
  - eigenvector:
    - - - -0.41629983151063
        - 0.0
      - - 0.08441463301817
        - 0.00410637564241
      - - -0.00157123744391
        - -0.00487288958199
    - - - -0.15923358690846
        - 0.00767225983693
      - - 0.03868211204053
        - -0.00788413405501
      - - -0.00606369617557
        - 0.00552137667869
    - - - 0.86949406406082
        - -0.02625332873531
      - - -0.1820021359355
        - -0.03195557394035
      - - 0.01951835328044
        - 0.03534909757172
    frequency: 10.034153547
  - eigenvector:
    - - - -0.05663200089332
        - 0.0
      - - -0.25951523220193
        - -0.01293073417166
      - - 0.24601978638937
        - 0.01069261774666
    - - - -0.04792311676503
        - -0.00581687054483
      - - -0.17229235441958
        - 0.00878706266885
      - - 0.19609549403335
        - -0.00580993628647
    - - - 0.14488410203069
        - -0.04464301790349
      - - 0.62549239521397
        - 0.03692276167135
      - - -0.61794635565033
        - -0.02473327797034
    frequency: 10.3427746413
  - eigenvector:
    - - - 0.00810800661512
        - 0.0
      - - 0.01641508772453
        - -0.00060794503854
      - - 0.01554983884163
        - 0.00481169671318
    - - - -0.10517440223184
        - -0.00738108163622
      - - -0.50306094702324
        - -0.03425942838394
      - - -0.5110858707768
        - -0.04038097290977
    - - - 0.09023210894597
        - 0.00640736245273
      - - 0.47385770588417
        - 0.03461826914874
      - - 0.48584452680118
        - 0.03510830731687
    frequency: 15.2673842315
  distance: 0.010466
  q-position:
  - 0.03
  - 0.0
  - 0.0
- band:
  - eigenvector:
    - - - -0.46295808982032
        - 0.0
      - - 0.07874657923766
        - -8.636896301e-05
      - - 0.00716907946332
        - 0.00045275319388
    - - - 0.86017469743811
        - -0.09664050920693
      - - -0.15968842308293
        - 0.0165501239547
      - - 0.00498841389973
        - 0.00133002609144
    - - - -0.05647037888139
        - -0.00603258560484
      - - 0.03111161982299
        - -0.00610833562178
      - - 0.01112389724072
        - 0.00469502035203
    frequency: -5.5353890577418765
  - eigenvector:
    - - - -0.06842627381913
        - 0.0
      - - -0.37562125110976
        - 0.02720766713613
      - - 0.34177775972307
        - -0.03125629110366
    - - - 0.10604663611061
        - -0.02955026566036
      - - 0.59884821761466
        - -0.12569820775657
      - - -0.57244892346458
        - 0.13260633502007
    - - - 0.00038524462915
        - -0.02008604525536
      - - 0.05571837672501
        - 0.00496691003141
      - - -0.00882575542288
        - 0.0163103367871
    frequency: -4.0411977539830435
  - eigenvector:
    - - - -0.75842863134523
        - 0.0
      - - 0.00721345055396
        - -0.00278612418603
      - - 0.08484484373014
        - -0.00387547125826
    - - - -0.42687859902253
        - 0.05150818960354
      - - 0.04659062997315
        - -0.02472593981725
      - - 0.09384775799908
        - -0.06495171923783
    - - - -0.44554393407143
        - 0.02552698136254
      - - 0.04859700169389
        - -0.01217204055492
      - - 0.09841961779583
        - -0.07395037134673
    frequency: 2.6391059811
  - eigenvector:
    - - - 0.04474683964413
        - 0.0
      - - -0.4230718137878
        - 0.24598488064239
      - - 0.55244868303643
        - 0.12717564361496
    - - - -0.00979570172641
        - -0.01814403291648
      - - -0.43407099982937
        - 0.03619780672597
      - - 0.06950537760829
        - -0.11049260998718
    - - - -0.0109662316283
        - -0.00380055350057
      - - -0.46650806393668
        - -0.00768224938167
      - - 0.07243475646981
        - -0.08284461509892
    frequency: 1.5120245468
  - eigenvector:
    - - - -0.13268121131715
        - 0.0
      - - -0.56153341619369
        - 0.1500467030738
      - - -0.65788080150107
        - 0.03031563296911
    - - - -0.03871112222653
        - 0.01152110909945
      - - -0.15633569799292
        - 0.17399996910049
      - - -0.19081702269625
        - 0.12331493086259
    - - - -0.03548249127967
        - 0.01545615620682
      - - -0.14550570710263
        - 0.18123528687298
      - - -0.17915677312054
        - 0.12351799334659
    frequency: 0.216547448
  - eigenvector:
    - - - -0.04662511297065
        - 0.0
      - - 0.3900728764592
        - -0.21469552472103
      - - 0.15591026634897
        - 0.1838972158884
    - - - -0.09993856605676
        - 0.02406822696929
      - - -0.25426006664533
        - 0.03509700053663
      - - -0.40495140172794
        - 0.32645474808055
    - - - -0.12903954934933
        - 0.02629500179051
      - - -0.25899707096419
        - 0.06344156771478
      - - -0.45092146323583
        - 0.32041606219008
    frequency: 1.8459002844
  - eigenvector:
    - - - -0.42423742402452
        - 0.0
      - - 0.0888015428242
        - 0.00558215880927
      - - -0.00411145902089
        - -0.00654393758486
    - - - -0.16499829410839
        - 0.01088765750758
      - - 0.04184257093546
        - -0.01087645341284
      - - -0.00858204632059
        - 0.00748755022704
    - - - 0.8610337321096
        - -0.03479025117527
      - - -0.18815151409481
        - -0.04244286383428
      - - 0.02674797107914
        - 0.0468713449065
    frequency: 10.0671952725
  - eigenvector:
    - - - -0.0628699135079
        - 0.0
      - - -0.26059225766369
        - -0.01549409374602
      - - 0.24741011158276
        - 0.01257009489228
    - - - -0.05095177304268
        - -0.00740429200839
      - - -0.1741777576615
        - 0.0131530372343
      - - 0.20023830184119
        - -0.00910991977244
    - - - 0.15423512411672
        - -0.06060825705379
      - - 0.62058189077649
        - 0.0438565175685
      - - -0.61475038732988
        - -0.02763861068002
    frequency: 10.3605606556
  - eigenvector:
    - - - 0.00794736781863
        - 0.0
      - - 0.01608086091329
        - -0.00077569421458
      - - 0.01576844725341
        - 0.00648247977241
    - - - -0.10507683554447
        - -0.01020251592193
      - - -0.50207720465486
        - -0.04730929118276
      - - -0.50897840761061
        - -0.05551795807343
    - - - 0.0900308316564
        - 0.00883252093142
      - - 0.47329770708732
        - 0.04781306062327
      - - 0.48471382842133
        - 0.04850695823234
    frequency: 15.2547779927
  distance: 0.0139547
  q-position:
  - 0.04
  - 0.0
  - 0.0
- band:
  - eigenvector:
    - - - -0.46669054594737
        - 0.0
      - - 0.07896648169082
        - -0.00010360520028
      - - 0.00758723657039
        - 0.00057694995018
    - - - 0.85517817505252
        - -0.1205486215144
      - - -0.15834134648833
        - 0.02052730085394
      - - 0.00476314808801
        - 0.0017573709647
    - - - -0.05728717817986
        - -0.00770533347593
      - - 0.03086413265936
        - -0.00770959973278
      - - 0.01169845242111
        - 0.00595237123201
    frequency: -5.503693180145569
  - eigenvector:
    - - - 0.06925380533412
        - -0.0
      - - 0.37812319632865
        - -0.03310446675293
      - - -0.34293616091027
        - 0.03827651669097
    - - - -0.1023909985615
        - 0.03613968851127
      - - -0.59048820978939
        - 0.15464493687163
      - - 0.56253400063745
        - -0.16340663205622
    - - - 0.00245829010101
        - 0.02511749271871
      - - -0.05808161601165
        - -0.00609490273401
      - - 0.00798639151417
        - -0.02053313304296
    frequency: -3.9987066282343324
  - eigenvector:
    - - - -0.75038720790323
        - 0.0
      - - 0.01248863374757
        - -0.01155921240922
      - - 0.09312015403808
        - 0.00023929847965
    - - - -0.42744519731178
        - 0.06796420503021
      - - 0.03941905561996
        - -0.0138047267747
      - - 0.08831819278821
        - -0.05408995779648
    - - - -0.46049480797386
        - 0.03808009183403
      - - 0.0417662136424
        - 0.00422698323779
      - - 0.09289026144952
        - -0.06529013143746
    frequency: 3.2695651641
  - eigenvector:
    - - - 0.02143323041478
        - 0.0
      - - -0.3010509116946
        - 0.20317444372146
      - - 0.37940017747358
        - 0.2879279063825
    - - - -0.03711354181234
        - -0.0417768868478
      - - -0.47533483860426
        - -0.13730172207429
      - - -0.14661101055526
        - -0.16712824571182
    - - - -0.04810745037899
        - -0.03594153035783
      - - -0.5089897197612
        - -0.18180906226923
      - - -0.15429587600178
        - -0.15459429203351
    frequency: 1.7334428731
  - eigenvector:
    - - - 0.13111951969638
        - 0.0
      - - 0.58279994250278
        - -0.09891433254377
      - - 0.68916849142612
        - -0.00129625369989
    - - - 0.03089641281371
        - -0.0143022445999
      - - 0.12433805968471
        - -0.16075902799036
      - - 0.15572382750775
        - -0.12285099288285
    - - - 0.02597132061531
        - -0.01840098861126
      - - 0.10922204378728
        - -0.16800716993625
      - - 0.14212512588516
        - -0.12344879368135
    frequency: -0.04488825356261019
  - eigenvector:
    - - - 0.05189068255838
        - 0.0
      - - -0.53269925246652
        - 0.07865878484553
      - - 0.25224365986314
        - -0.20989068009645
    - - - 0.07831986769408
        - 0.01705666743619
      - - 0.03387077726799
        - 0.15719098910006
      - - 0.49415543283165
        - -0.09623752957687
    - - - 0.10518873675042
        - 0.0403731624978
      - - 0.02516041483981
        - 0.11377766921572
      - - 0.53422289707105
        - -0.04765610774435
    frequency: 2.0855977067
  - eigenvector:
    - - - 0.43439721542908
        - 0.0
      - - -0.09509274351868
        - -0.00710373695475
      - - 0.00796054428354
        - 0.0082076508045
    - - - 0.17247044632258
        - -0.01472366598098
      - - -0.04640708166818
        - 0.01429012595219
      - - 0.01237379859035
        - -0.00964890885279
    - - - -0.84920962956987
        - 0.04289674912041
      - - 0.19740030332047
        - 0.05267188473719
      - - -0.03748689107957
        - -0.05800648058626
    frequency: 10.1108369667
  - eigenvector:
    - - - -0.07223379893389
        - 0.0
      - - -0.26168894291562
        - -0.01656455787027
      - - 0.24918485115158
        - 0.01302496657874
    - - - -0.0556028023008
        - -0.00862212718528
      - - -0.17631898856222
        - 0.01872089642011
      - - 0.20544699579105
        - -0.01360908180564
    - - - 0.16733936358792
        - -0.07757988522377
      - - 0.61404655874389
        - 0.04633905358453
      - - -0.61062435977435
        - -0.0261115176521
    frequency: 10.3840048577
  - eigenvector:
    - - - 0.00773729646159
        - 0.0
      - - 0.01565928898977
        - -0.0009107463153
      - - 0.01601587465892
        - 0.00822005297169
    - - - -0.1049057435375
        - -0.01337643204194
      - - -0.500581236932
        - -0.06195118439404
      - - -0.50598257180074
        - -0.0722754997422
    - - - 0.08972751263317
        - 0.01153998459893
      - - 0.47232761495545
        - 0.06261514012948
      - - 0.48299907043261
        - 0.06354450176708
    frequency: 15.2386398336
  distance: 0.0174434
  q-position:
  - 0.05
  - 0.0
  - 0.0
- band:
  - eigenvector:
    - - - -0.47129265158631
        - 0.0
      - - 0.07921886539348
        - -0.00011766764107
      - - 0.00811934038171
        - 0.00070895165313
    - - - 0.84902192448677
        - -0.14428541281133
      - - -0.15666797764248
        - 0.02439080137836
      - - 0.00447708957597
        - 0.00225316277588
    - - - -0.05832404463177
        - -0.00949325484576
      - - 0.03054578531216
        - -0.00936205573391
      - - 0.01242747464756
        - 0.00726776464854
    frequency: -5.464523021858626
  - eigenvector:
    - - - -0.0701988388198
        - 0.0
      - - -0.38135216140192
        - 0.03843056586516
      - - 0.34444832655254
        - -0.04480898583113
    - - - 0.09797807748593
        - -0.04222451057696
      - - 0.58062804716115
        - -0.18208788825598
      - - -0.55071635061923
        - 0.1928002815176
    - - - -0.00598972630369
        - -0.03016540842028
      - - 0.06099907572111
        - 0.00714831735874
      - - -0.0069824341199
        - 0.02487350895113
    frequency: -3.9457816144964055
  - eigenvector:
    - - - 0.73890135719581
        - 0.0
      - - -0.01285022585583
        - 0.01696027739627
      - - -0.09628896947983
        - -0.00543727594282
    - - - 0.42576171402213
        - -0.0836489449761
      - - -0.03587038295294
        - 0.00772145942822
      - - -0.08697758297288
        - 0.05118134326316
    - - - 0.47676813085244
        - -0.05084624437911
      - - -0.03904900890294
        - -0.01568599353227
      - - -0.09223007586162
        - 0.06556907495691
    frequency: 3.8842932792
  - eigenvector:
    - - - 0.00352014345131
        - 0.0
      - - -0.29116562565724